PSF EXT CMAP XPLOR

         3 !NTITLE
* GENERATED BY CHARMM-GUI (HTTP://WWW.CHARMM-GUI.ORG) V3.7 ON FEB, 18. 2025. JOB
* GET A DIFFERENT CONFORMATION FOR LIPIDS PENETRATING PROTEIN / CHOL            
*  DATE:     2/18/25     10:57:58      CREATED BY USER: charmm-gui              

     22320 !NATOM
         1 MEMB     1        SAPS     N        NH3L    -0.300000       14.0070           0
         2 MEMB     1        SAPS     HN1      HCL      0.330000       1.00800           0
         3 MEMB     1        SAPS     HN2      HCL      0.330000       1.00800           0
         4 MEMB     1        SAPS     HN3      HCL      0.330000       1.00800           0
         5 MEMB     1        SAPS     C12      CTL1     0.210000       12.0110           0
         6 MEMB     1        SAPS     H12A     HBL      0.100000       1.00800           0
         7 MEMB     1        SAPS     C13      CCL      0.340000       12.0110           0
         8 MEMB     1        SAPS     O13A     OCL     -0.670000       15.9994           0
         9 MEMB     1        SAPS     O13B     OCL     -0.670000       15.9994           0
        10 MEMB     1        SAPS     C11      CTL2    -0.800000E-01   12.0110           0
        11 MEMB     1        SAPS     H11A     HAL2     0.900000E-01   1.00800           0
        12 MEMB     1        SAPS     H11B     HAL2     0.900000E-01   1.00800           0
        13 MEMB     1        SAPS     P        PL        1.50000       30.9740           0
        14 MEMB     1        SAPS     O13      O2L     -0.780000       15.9994           0
        15 MEMB     1        SAPS     O14      O2L     -0.780000       15.9994           0
        16 MEMB     1        SAPS     O12      OSLP    -0.570000       15.9994           0
        17 MEMB     1        SAPS     O11      OSLP    -0.570000       15.9994           0
        18 MEMB     1        SAPS     C1       CTL2    -0.800000E-01   12.0110           0
        19 MEMB     1        SAPS     HA       HAL2     0.900000E-01   1.00800           0
        20 MEMB     1        SAPS     HB       HAL2     0.900000E-01   1.00800           0
        21 MEMB     1        SAPS     C2       CTL1     0.170000       12.0110           0
        22 MEMB     1        SAPS     HS       HAL1     0.900000E-01   1.00800           0
        23 MEMB     1        SAPS     O21      OSL     -0.490000       15.9994           0
        24 MEMB     1        SAPS     C21      CL       0.900000       12.0110           0
        25 MEMB     1        SAPS     O22      OBL     -0.630000       15.9994           0
        26 MEMB     1        SAPS     C22      CTL2    -0.220000       12.0110           0
        27 MEMB     1        SAPS     H2R      HAL2     0.900000E-01   1.00800           0
        28 MEMB     1        SAPS     H2S      HAL2     0.900000E-01   1.00800           0
        29 MEMB     1        SAPS     C3       CTL2     0.800000E-01   12.0110           0
        30 MEMB     1        SAPS     HX       HAL2     0.900000E-01   1.00800           0
        31 MEMB     1        SAPS     HY       HAL2     0.900000E-01   1.00800           0
        32 MEMB     1        SAPS     O31      OSL     -0.490000       15.9994           0
        33 MEMB     1        SAPS     C31      CL       0.900000       12.0110           0
        34 MEMB     1        SAPS     O32      OBL     -0.630000       15.9994           0
        35 MEMB     1        SAPS     C32      CTL2    -0.220000       12.0110           0
        36 MEMB     1        SAPS     H2X      HAL2     0.900000E-01   1.00800           0
        37 MEMB     1        SAPS     H2Y      HAL2     0.900000E-01   1.00800           0
        38 MEMB     1        SAPS     C23      CTL2    -0.180000       12.0110           0
        39 MEMB     1        SAPS     H3R      HAL2     0.900000E-01   1.00800           0
        40 MEMB     1        SAPS     H3S      HAL2     0.900000E-01   1.00800           0
        41 MEMB     1        SAPS     C24      CTL2    -0.180000       12.0110           0
        42 MEMB     1        SAPS     H4R      HAL2     0.900000E-01   1.00800           0
        43 MEMB     1        SAPS     H4S      HAL2     0.900000E-01   1.00800           0
        44 MEMB     1        SAPS     C25      CEL1    -0.150000       12.0110           0
        45 MEMB     1        SAPS     H5R      HEL1     0.150000       1.00800           0
        46 MEMB     1        SAPS     C26      CEL1    -0.150000       12.0110           0
        47 MEMB     1        SAPS     H6R      HEL1     0.150000       1.00800           0
        48 MEMB     1        SAPS     C27      CTL2    -0.180000       12.0110           0
        49 MEMB     1        SAPS     H7R      HAL2     0.900000E-01   1.00800           0
        50 MEMB     1        SAPS     H7S      HAL2     0.900000E-01   1.00800           0
        51 MEMB     1        SAPS     C28      CEL1    -0.150000       12.0110           0
        52 MEMB     1        SAPS     H8R      HEL1     0.150000       1.00800           0
        53 MEMB     1        SAPS     C29      CEL1    -0.150000       12.0110           0
        54 MEMB     1        SAPS     H9R      HEL1     0.150000       1.00800           0
        55 MEMB     1        SAPS     C210     CTL2    -0.180000       12.0110           0
        56 MEMB     1        SAPS     H10R     HAL2     0.900000E-01   1.00800           0
        57 MEMB     1        SAPS     H10S     HAL2     0.900000E-01   1.00800           0
        58 MEMB     1        SAPS     C211     CEL1    -0.150000       12.0110           0
        59 MEMB     1        SAPS     H11R     HEL1     0.150000       1.00800           0
        60 MEMB     1        SAPS     C212     CEL1    -0.150000       12.0110           0
        61 MEMB     1        SAPS     H12R     HEL1     0.150000       1.00800           0
        62 MEMB     1        SAPS     C213     CTL2    -0.180000       12.0110           0
        63 MEMB     1        SAPS     H13R     HAL2     0.900000E-01   1.00800           0
        64 MEMB     1        SAPS     H13S     HAL2     0.900000E-01   1.00800           0
        65 MEMB     1        SAPS     C214     CEL1    -0.150000       12.0110           0
        66 MEMB     1        SAPS     H14R     HEL1     0.150000       1.00800           0
        67 MEMB     1        SAPS     C215     CEL1    -0.150000       12.0110           0
        68 MEMB     1        SAPS     H15R     HEL1     0.150000       1.00800           0
        69 MEMB     1        SAPS     C216     CTL2    -0.180000       12.0110           0
        70 MEMB     1        SAPS     H16R     HAL2     0.900000E-01   1.00800           0
        71 MEMB     1        SAPS     H16S     HAL2     0.900000E-01   1.00800           0
        72 MEMB     1        SAPS     C217     CTL2    -0.180000       12.0110           0
        73 MEMB     1        SAPS     H17R     HAL2     0.900000E-01   1.00800           0
        74 MEMB     1        SAPS     H17S     HAL2     0.900000E-01   1.00800           0
        75 MEMB     1        SAPS     C218     CTL2    -0.180000       12.0110           0
        76 MEMB     1        SAPS     H18R     HAL2     0.900000E-01   1.00800           0
        77 MEMB     1        SAPS     H18S     HAL2     0.900000E-01   1.00800           0
        78 MEMB     1        SAPS     C219     CTL2    -0.180000       12.0110           0
        79 MEMB     1        SAPS     H19R     HAL2     0.900000E-01   1.00800           0
        80 MEMB     1        SAPS     H19S     HAL2     0.900000E-01   1.00800           0
        81 MEMB     1        SAPS     C220     CTL3    -0.270000       12.0110           0
        82 MEMB     1        SAPS     H20R     HAL3     0.900000E-01   1.00800           0
        83 MEMB     1        SAPS     H20S     HAL3     0.900000E-01   1.00800           0
        84 MEMB     1        SAPS     H20T     HAL3     0.900000E-01   1.00800           0
        85 MEMB     1        SAPS     C33      CTL2    -0.180000       12.0110           0
        86 MEMB     1        SAPS     H3X      HAL2     0.900000E-01   1.00800           0
        87 MEMB     1        SAPS     H3Y      HAL2     0.900000E-01   1.00800           0
        88 MEMB     1        SAPS     C34      CTL2    -0.180000       12.0110           0
        89 MEMB     1        SAPS     H4X      HAL2     0.900000E-01   1.00800           0
        90 MEMB     1        SAPS     H4Y      HAL2     0.900000E-01   1.00800           0
        91 MEMB     1        SAPS     C35      CTL2    -0.180000       12.0110           0
        92 MEMB     1        SAPS     H5X      HAL2     0.900000E-01   1.00800           0
        93 MEMB     1        SAPS     H5Y      HAL2     0.900000E-01   1.00800           0
        94 MEMB     1        SAPS     C36      CTL2    -0.180000       12.0110           0
        95 MEMB     1        SAPS     H6X      HAL2     0.900000E-01   1.00800           0
        96 MEMB     1        SAPS     H6Y      HAL2     0.900000E-01   1.00800           0
        97 MEMB     1        SAPS     C37      CTL2    -0.180000       12.0110           0
        98 MEMB     1        SAPS     H7X      HAL2     0.900000E-01   1.00800           0
        99 MEMB     1        SAPS     H7Y      HAL2     0.900000E-01   1.00800           0
       100 MEMB     1        SAPS     C38      CTL2    -0.180000       12.0110           0
       101 MEMB     1        SAPS     H8X      HAL2     0.900000E-01   1.00800           0
       102 MEMB     1        SAPS     H8Y      HAL2     0.900000E-01   1.00800           0
       103 MEMB     1        SAPS     C39      CTL2    -0.180000       12.0110           0
       104 MEMB     1        SAPS     H9X      HAL2     0.900000E-01   1.00800           0
       105 MEMB     1        SAPS     H9Y      HAL2     0.900000E-01   1.00800           0
       106 MEMB     1        SAPS     C310     CTL2    -0.180000       12.0110           0
       107 MEMB     1        SAPS     H10X     HAL2     0.900000E-01   1.00800           0
       108 MEMB     1        SAPS     H10Y     HAL2     0.900000E-01   1.00800           0
       109 MEMB     1        SAPS     C311     CTL2    -0.180000       12.0110           0
       110 MEMB     1        SAPS     H11X     HAL2     0.900000E-01   1.00800           0
       111 MEMB     1        SAPS     H11Y     HAL2     0.900000E-01   1.00800           0
       112 MEMB     1        SAPS     C312     CTL2    -0.180000       12.0110           0
       113 MEMB     1        SAPS     H12X     HAL2     0.900000E-01   1.00800           0
       114 MEMB     1        SAPS     H12Y     HAL2     0.900000E-01   1.00800           0
       115 MEMB     1        SAPS     C313     CTL2    -0.180000       12.0110           0
       116 MEMB     1        SAPS     H13X     HAL2     0.900000E-01   1.00800           0
       117 MEMB     1        SAPS     H13Y     HAL2     0.900000E-01   1.00800           0
       118 MEMB     1        SAPS     C314     CTL2    -0.180000       12.0110           0
       119 MEMB     1        SAPS     H14X     HAL2     0.900000E-01   1.00800           0
       120 MEMB     1        SAPS     H14Y     HAL2     0.900000E-01   1.00800           0
       121 MEMB     1        SAPS     C315     CTL2    -0.180000       12.0110           0
       122 MEMB     1        SAPS     H15X     HAL2     0.900000E-01   1.00800           0
       123 MEMB     1        SAPS     H15Y     HAL2     0.900000E-01   1.00800           0
       124 MEMB     1        SAPS     C316     CTL2    -0.180000       12.0110           0
       125 MEMB     1        SAPS     H16X     HAL2     0.900000E-01   1.00800           0
       126 MEMB     1        SAPS     H16Y     HAL2     0.900000E-01   1.00800           0
       127 MEMB     1        SAPS     C317     CTL2    -0.180000       12.0110           0
       128 MEMB     1        SAPS     H17X     HAL2     0.900000E-01   1.00800           0
       129 MEMB     1        SAPS     H17Y     HAL2     0.900000E-01   1.00800           0
       130 MEMB     1        SAPS     C318     CTL3    -0.270000       12.0110           0
       131 MEMB     1        SAPS     H18X     HAL3     0.900000E-01   1.00800           0
       132 MEMB     1        SAPS     H18Y     HAL3     0.900000E-01   1.00800           0
       133 MEMB     1        SAPS     H18Z     HAL3     0.900000E-01   1.00800           0
       134 MEMB     2        SAPC     N        NTL     -0.600000       14.0070           0
       135 MEMB     2        SAPC     C12      CTL2    -0.100000       12.0110           0
       136 MEMB     2        SAPC     H12A     HL       0.250000       1.00800           0
       137 MEMB     2        SAPC     H12B     HL       0.250000       1.00800           0
       138 MEMB     2        SAPC     C13      CTL5    -0.350000       12.0110           0
       139 MEMB     2        SAPC     H13A     HL       0.250000       1.00800           0
       140 MEMB     2        SAPC     H13B     HL       0.250000       1.00800           0
       141 MEMB     2        SAPC     H13C     HL       0.250000       1.00800           0
       142 MEMB     2        SAPC     C14      CTL5    -0.350000       12.0110           0
       143 MEMB     2        SAPC     H14A     HL       0.250000       1.00800           0
       144 MEMB     2        SAPC     H14B     HL       0.250000       1.00800           0
       145 MEMB     2        SAPC     H14C     HL       0.250000       1.00800           0
       146 MEMB     2        SAPC     C15      CTL5    -0.350000       12.0110           0
       147 MEMB     2        SAPC     H15A     HL       0.250000       1.00800           0
       148 MEMB     2        SAPC     H15B     HL       0.250000       1.00800           0
       149 MEMB     2        SAPC     H15C     HL       0.250000       1.00800           0
       150 MEMB     2        SAPC     C11      CTL2    -0.800000E-01   12.0110           0
       151 MEMB     2        SAPC     H11A     HAL2     0.900000E-01   1.00800           0
       152 MEMB     2        SAPC     H11B     HAL2     0.900000E-01   1.00800           0
       153 MEMB     2        SAPC     P        PL        1.50000       30.9740           0
       154 MEMB     2        SAPC     O13      O2L     -0.780000       15.9994           0
       155 MEMB     2        SAPC     O14      O2L     -0.780000       15.9994           0
       156 MEMB     2        SAPC     O12      OSLP    -0.570000       15.9994           0
       157 MEMB     2        SAPC     O11      OSLP    -0.570000       15.9994           0
       158 MEMB     2        SAPC     C1       CTL2    -0.800000E-01   12.0110           0
       159 MEMB     2        SAPC     HA       HAL2     0.900000E-01   1.00800           0
       160 MEMB     2        SAPC     HB       HAL2     0.900000E-01   1.00800           0
       161 MEMB     2        SAPC     C2       CTL1     0.170000       12.0110           0
       162 MEMB     2        SAPC     HS       HAL1     0.900000E-01   1.00800           0
       163 MEMB     2        SAPC     O21      OSL     -0.490000       15.9994           0
       164 MEMB     2        SAPC     C21      CL       0.900000       12.0110           0
       165 MEMB     2        SAPC     O22      OBL     -0.630000       15.9994           0
       166 MEMB     2        SAPC     C22      CTL2    -0.220000       12.0110           0
       167 MEMB     2        SAPC     H2R      HAL2     0.900000E-01   1.00800           0
       168 MEMB     2        SAPC     H2S      HAL2     0.900000E-01   1.00800           0
       169 MEMB     2        SAPC     C3       CTL2     0.800000E-01   12.0110           0
       170 MEMB     2        SAPC     HX       HAL2     0.900000E-01   1.00800           0
       171 MEMB     2        SAPC     HY       HAL2     0.900000E-01   1.00800           0
       172 MEMB     2        SAPC     O31      OSL     -0.490000       15.9994           0
       173 MEMB     2        SAPC     C31      CL       0.900000       12.0110           0
       174 MEMB     2        SAPC     O32      OBL     -0.630000       15.9994           0
       175 MEMB     2        SAPC     C32      CTL2    -0.220000       12.0110           0
       176 MEMB     2        SAPC     H2X      HAL2     0.900000E-01   1.00800           0
       177 MEMB     2        SAPC     H2Y      HAL2     0.900000E-01   1.00800           0
       178 MEMB     2        SAPC     C23      CTL2    -0.180000       12.0110           0
       179 MEMB     2        SAPC     H3R      HAL2     0.900000E-01   1.00800           0
       180 MEMB     2        SAPC     H3S      HAL2     0.900000E-01   1.00800           0
       181 MEMB     2        SAPC     C24      CTL2    -0.180000       12.0110           0
       182 MEMB     2        SAPC     H4R      HAL2     0.900000E-01   1.00800           0
       183 MEMB     2        SAPC     H4S      HAL2     0.900000E-01   1.00800           0
       184 MEMB     2        SAPC     C25      CEL1    -0.150000       12.0110           0
       185 MEMB     2        SAPC     H5R      HEL1     0.150000       1.00800           0
       186 MEMB     2        SAPC     C26      CEL1    -0.150000       12.0110           0
       187 MEMB     2        SAPC     H6R      HEL1     0.150000       1.00800           0
       188 MEMB     2        SAPC     C27      CTL2    -0.180000       12.0110           0
       189 MEMB     2        SAPC     H7R      HAL2     0.900000E-01   1.00800           0
       190 MEMB     2        SAPC     H7S      HAL2     0.900000E-01   1.00800           0
       191 MEMB     2        SAPC     C28      CEL1    -0.150000       12.0110           0
       192 MEMB     2        SAPC     H8R      HEL1     0.150000       1.00800           0
       193 MEMB     2        SAPC     C29      CEL1    -0.150000       12.0110           0
       194 MEMB     2        SAPC     H9R      HEL1     0.150000       1.00800           0
       195 MEMB     2        SAPC     C210     CTL2    -0.180000       12.0110           0
       196 MEMB     2        SAPC     H10R     HAL2     0.900000E-01   1.00800           0
       197 MEMB     2        SAPC     H10S     HAL2     0.900000E-01   1.00800           0
       198 MEMB     2        SAPC     C211     CEL1    -0.150000       12.0110           0
       199 MEMB     2        SAPC     H11R     HEL1     0.150000       1.00800           0
       200 MEMB     2        SAPC     C212     CEL1    -0.150000       12.0110           0
       201 MEMB     2        SAPC     H12R     HEL1     0.150000       1.00800           0
       202 MEMB     2        SAPC     C213     CTL2    -0.180000       12.0110           0
       203 MEMB     2        SAPC     H13R     HAL2     0.900000E-01   1.00800           0
       204 MEMB     2        SAPC     H13S     HAL2     0.900000E-01   1.00800           0
       205 MEMB     2        SAPC     C214     CEL1    -0.150000       12.0110           0
       206 MEMB     2        SAPC     H14R     HEL1     0.150000       1.00800           0
       207 MEMB     2        SAPC     C215     CEL1    -0.150000       12.0110           0
       208 MEMB     2        SAPC     H15R     HEL1     0.150000       1.00800           0
       209 MEMB     2        SAPC     C216     CTL2    -0.180000       12.0110           0
       210 MEMB     2        SAPC     H16R     HAL2     0.900000E-01   1.00800           0
       211 MEMB     2        SAPC     H16S     HAL2     0.900000E-01   1.00800           0
       212 MEMB     2        SAPC     C217     CTL2    -0.180000       12.0110           0
       213 MEMB     2        SAPC     H17R     HAL2     0.900000E-01   1.00800           0
       214 MEMB     2        SAPC     H17S     HAL2     0.900000E-01   1.00800           0
       215 MEMB     2        SAPC     C218     CTL2    -0.270000       12.0110           0
       216 MEMB     2        SAPC     H18R     HAL2     0.900000E-01   1.00800           0
       217 MEMB     2        SAPC     H18S     HAL2     0.900000E-01   1.00800           0
       218 MEMB     2        SAPC     C219     CTL2    -0.180000       12.0110           0
       219 MEMB     2        SAPC     H19R     HAL2     0.900000E-01   1.00800           0
       220 MEMB     2        SAPC     H19S     HAL2     0.900000E-01   1.00800           0
       221 MEMB     2        SAPC     C220     CTL3    -0.180000       12.0110           0
       222 MEMB     2        SAPC     H20R     HAL3     0.900000E-01   1.00800           0
       223 MEMB     2        SAPC     H20S     HAL3     0.900000E-01   1.00800           0
       224 MEMB     2        SAPC     H20T     HAL3     0.900000E-01   1.00800           0
       225 MEMB     2        SAPC     C33      CTL2    -0.180000       12.0110           0
       226 MEMB     2        SAPC     H3X      HAL2     0.900000E-01   1.00800           0
       227 MEMB     2        SAPC     H3Y      HAL2     0.900000E-01   1.00800           0
       228 MEMB     2        SAPC     C34      CTL2    -0.180000       12.0110           0
       229 MEMB     2        SAPC     H4X      HAL2     0.900000E-01   1.00800           0
       230 MEMB     2        SAPC     H4Y      HAL2     0.900000E-01   1.00800           0
       231 MEMB     2        SAPC     C35      CTL2    -0.180000       12.0110           0
       232 MEMB     2        SAPC     H5X      HAL2     0.900000E-01   1.00800           0
       233 MEMB     2        SAPC     H5Y      HAL2     0.900000E-01   1.00800           0
       234 MEMB     2        SAPC     C36      CTL2    -0.180000       12.0110           0
       235 MEMB     2        SAPC     H6X      HAL2     0.900000E-01   1.00800           0
       236 MEMB     2        SAPC     H6Y      HAL2     0.900000E-01   1.00800           0
       237 MEMB     2        SAPC     C37      CTL2    -0.180000       12.0110           0
       238 MEMB     2        SAPC     H7X      HAL2     0.900000E-01   1.00800           0
       239 MEMB     2        SAPC     H7Y      HAL2     0.900000E-01   1.00800           0
       240 MEMB     2        SAPC     C38      CTL2    -0.180000       12.0110           0
       241 MEMB     2        SAPC     H8X      HAL2     0.900000E-01   1.00800           0
       242 MEMB     2        SAPC     H8Y      HAL2     0.900000E-01   1.00800           0
       243 MEMB     2        SAPC     C39      CTL2    -0.180000       12.0110           0
       244 MEMB     2        SAPC     H9X      HAL2     0.900000E-01   1.00800           0
       245 MEMB     2        SAPC     H9Y      HAL2     0.900000E-01   1.00800           0
       246 MEMB     2        SAPC     C310     CTL2    -0.180000       12.0110           0
       247 MEMB     2        SAPC     H10X     HAL2     0.900000E-01   1.00800           0
       248 MEMB     2        SAPC     H10Y     HAL2     0.900000E-01   1.00800           0
       249 MEMB     2        SAPC     C311     CTL2    -0.180000       12.0110           0
       250 MEMB     2        SAPC     H11X     HAL2     0.900000E-01   1.00800           0
       251 MEMB     2        SAPC     H11Y     HAL2     0.900000E-01   1.00800           0
       252 MEMB     2        SAPC     C312     CTL2    -0.180000       12.0110           0
       253 MEMB     2        SAPC     H12X     HAL2     0.900000E-01   1.00800           0
       254 MEMB     2        SAPC     H12Y     HAL2     0.900000E-01   1.00800           0
       255 MEMB     2        SAPC     C313     CTL2    -0.180000       12.0110           0
       256 MEMB     2        SAPC     H13X     HAL2     0.900000E-01   1.00800           0
       257 MEMB     2        SAPC     H13Y     HAL2     0.900000E-01   1.00800           0
       258 MEMB     2        SAPC     C314     CTL2    -0.180000       12.0110           0
       259 MEMB     2        SAPC     H14X     HAL2     0.900000E-01   1.00800           0
       260 MEMB     2        SAPC     H14Y     HAL2     0.900000E-01   1.00800           0
       261 MEMB     2        SAPC     C315     CTL2    -0.180000       12.0110           0
       262 MEMB     2        SAPC     H15X     HAL2     0.900000E-01   1.00800           0
       263 MEMB     2        SAPC     H15Y     HAL2     0.900000E-01   1.00800           0
       264 MEMB     2        SAPC     C316     CTL2    -0.180000       12.0110           0
       265 MEMB     2        SAPC     H16X     HAL2     0.900000E-01   1.00800           0
       266 MEMB     2        SAPC     H16Y     HAL2     0.900000E-01   1.00800           0
       267 MEMB     2        SAPC     C317     CTL2    -0.180000       12.0110           0
       268 MEMB     2        SAPC     H17X     HAL2     0.900000E-01   1.00800           0
       269 MEMB     2        SAPC     H17Y     HAL2     0.900000E-01   1.00800           0
       270 MEMB     2        SAPC     C318     CTL3    -0.270000       12.0110           0
       271 MEMB     2        SAPC     H18X     HAL3     0.900000E-01   1.00800           0
       272 MEMB     2        SAPC     H18Y     HAL3     0.900000E-01   1.00800           0
       273 MEMB     2        SAPC     H18Z     HAL3     0.900000E-01   1.00800           0
       274 MEMB     3        POPC     N        NTL     -0.600000       14.0070           0
       275 MEMB     3        POPC     C12      CTL2    -0.100000       12.0110           0
       276 MEMB     3        POPC     H12A     HL       0.250000       1.00800           0
       277 MEMB     3        POPC     H12B     HL       0.250000       1.00800           0
       278 MEMB     3        POPC     C13      CTL5    -0.350000       12.0110           0
       279 MEMB     3        POPC     H13A     HL       0.250000       1.00800           0
       280 MEMB     3        POPC     H13B     HL       0.250000       1.00800           0
       281 MEMB     3        POPC     H13C     HL       0.250000       1.00800           0
       282 MEMB     3        POPC     C14      CTL5    -0.350000       12.0110           0
       283 MEMB     3        POPC     H14A     HL       0.250000       1.00800           0
       284 MEMB     3        POPC     H14B     HL       0.250000       1.00800           0
       285 MEMB     3        POPC     H14C     HL       0.250000       1.00800           0
       286 MEMB     3        POPC     C15      CTL5    -0.350000       12.0110           0
       287 MEMB     3        POPC     H15A     HL       0.250000       1.00800           0
       288 MEMB     3        POPC     H15B     HL       0.250000       1.00800           0
       289 MEMB     3        POPC     H15C     HL       0.250000       1.00800           0
       290 MEMB     3        POPC     C11      CTL2    -0.800000E-01   12.0110           0
       291 MEMB     3        POPC     H11A     HAL2     0.900000E-01   1.00800           0
       292 MEMB     3        POPC     H11B     HAL2     0.900000E-01   1.00800           0
       293 MEMB     3        POPC     P        PL        1.50000       30.9740           0
       294 MEMB     3        POPC     O13      O2L     -0.780000       15.9994           0
       295 MEMB     3        POPC     O14      O2L     -0.780000       15.9994           0
       296 MEMB     3        POPC     O12      OSLP    -0.570000       15.9994           0
       297 MEMB     3        POPC     O11      OSLP    -0.570000       15.9994           0
       298 MEMB     3        POPC     C1       CTL2    -0.800000E-01   12.0110           0
       299 MEMB     3        POPC     HA       HAL2     0.900000E-01   1.00800           0
       300 MEMB     3        POPC     HB       HAL2     0.900000E-01   1.00800           0
       301 MEMB     3        POPC     C2       CTL1     0.170000       12.0110           0
       302 MEMB     3        POPC     HS       HAL1     0.900000E-01   1.00800           0
       303 MEMB     3        POPC     O21      OSL     -0.490000       15.9994           0
       304 MEMB     3        POPC     C21      CL       0.900000       12.0110           0
       305 MEMB     3        POPC     O22      OBL     -0.630000       15.9994           0
       306 MEMB     3        POPC     C22      CTL2    -0.220000       12.0110           0
       307 MEMB     3        POPC     H2R      HAL2     0.900000E-01   1.00800           0
       308 MEMB     3        POPC     H2S      HAL2     0.900000E-01   1.00800           0
       309 MEMB     3        POPC     C3       CTL2     0.800000E-01   12.0110           0
       310 MEMB     3        POPC     HX       HAL2     0.900000E-01   1.00800           0
       311 MEMB     3        POPC     HY       HAL2     0.900000E-01   1.00800           0
       312 MEMB     3        POPC     O31      OSL     -0.490000       15.9994           0
       313 MEMB     3        POPC     C31      CL       0.900000       12.0110           0
       314 MEMB     3        POPC     O32      OBL     -0.630000       15.9994           0
       315 MEMB     3        POPC     C32      CTL2    -0.220000       12.0110           0
       316 MEMB     3        POPC     H2X      HAL2     0.900000E-01   1.00800           0
       317 MEMB     3        POPC     H2Y      HAL2     0.900000E-01   1.00800           0
       318 MEMB     3        POPC     C23      CTL2    -0.180000       12.0110           0
       319 MEMB     3        POPC     H3R      HAL2     0.900000E-01   1.00800           0
       320 MEMB     3        POPC     H3S      HAL2     0.900000E-01   1.00800           0
       321 MEMB     3        POPC     C24      CTL2    -0.180000       12.0110           0
       322 MEMB     3        POPC     H4R      HAL2     0.900000E-01   1.00800           0
       323 MEMB     3        POPC     H4S      HAL2     0.900000E-01   1.00800           0
       324 MEMB     3        POPC     C25      CTL2    -0.180000       12.0110           0
       325 MEMB     3        POPC     H5R      HAL2     0.900000E-01   1.00800           0
       326 MEMB     3        POPC     H5S      HAL2     0.900000E-01   1.00800           0
       327 MEMB     3        POPC     C26      CTL2    -0.180000       12.0110           0
       328 MEMB     3        POPC     H6R      HAL2     0.900000E-01   1.00800           0
       329 MEMB     3        POPC     H6S      HAL2     0.900000E-01   1.00800           0
       330 MEMB     3        POPC     C27      CTL2    -0.180000       12.0110           0
       331 MEMB     3        POPC     H7R      HAL2     0.900000E-01   1.00800           0
       332 MEMB     3        POPC     H7S      HAL2     0.900000E-01   1.00800           0
       333 MEMB     3        POPC     C28      CTL2    -0.180000       12.0110           0
       334 MEMB     3        POPC     H8R      HAL2     0.900000E-01   1.00800           0
       335 MEMB     3        POPC     H8S      HAL2     0.900000E-01   1.00800           0
       336 MEMB     3        POPC     C29      CEL1    -0.150000       12.0110           0
       337 MEMB     3        POPC     H91      HEL1     0.150000       1.00800           0
       338 MEMB     3        POPC     C210     CEL1    -0.150000       12.0110           0
       339 MEMB     3        POPC     H101     HEL1     0.150000       1.00800           0
       340 MEMB     3        POPC     C211     CTL2    -0.180000       12.0110           0
       341 MEMB     3        POPC     H11R     HAL2     0.900000E-01   1.00800           0
       342 MEMB     3        POPC     H11S     HAL2     0.900000E-01   1.00800           0
       343 MEMB     3        POPC     C212     CTL2    -0.180000       12.0110           0
       344 MEMB     3        POPC     H12R     HAL2     0.900000E-01   1.00800           0
       345 MEMB     3        POPC     H12S     HAL2     0.900000E-01   1.00800           0
       346 MEMB     3        POPC     C213     CTL2    -0.180000       12.0110           0
       347 MEMB     3        POPC     H13R     HAL2     0.900000E-01   1.00800           0
       348 MEMB     3        POPC     H13S     HAL2     0.900000E-01   1.00800           0
       349 MEMB     3        POPC     C214     CTL2    -0.180000       12.0110           0
       350 MEMB     3        POPC     H14R     HAL2     0.900000E-01   1.00800           0
       351 MEMB     3        POPC     H14S     HAL2     0.900000E-01   1.00800           0
       352 MEMB     3        POPC     C215     CTL2    -0.180000       12.0110           0
       353 MEMB     3        POPC     H15R     HAL2     0.900000E-01   1.00800           0
       354 MEMB     3        POPC     H15S     HAL2     0.900000E-01   1.00800           0
       355 MEMB     3        POPC     C216     CTL2    -0.180000       12.0110           0
       356 MEMB     3        POPC     H16R     HAL2     0.900000E-01   1.00800           0
       357 MEMB     3        POPC     H16S     HAL2     0.900000E-01   1.00800           0
       358 MEMB     3        POPC     C217     CTL2    -0.180000       12.0110           0
       359 MEMB     3        POPC     H17R     HAL2     0.900000E-01   1.00800           0
       360 MEMB     3        POPC     H17S     HAL2     0.900000E-01   1.00800           0
       361 MEMB     3        POPC     C218     CTL3    -0.270000       12.0110           0
       362 MEMB     3        POPC     H18R     HAL3     0.900000E-01   1.00800           0
       363 MEMB     3        POPC     H18S     HAL3     0.900000E-01   1.00800           0
       364 MEMB     3        POPC     H18T     HAL3     0.900000E-01   1.00800           0
       365 MEMB     3        POPC     C33      CTL2    -0.180000       12.0110           0
       366 MEMB     3        POPC     H3X      HAL2     0.900000E-01   1.00800           0
       367 MEMB     3        POPC     H3Y      HAL2     0.900000E-01   1.00800           0
       368 MEMB     3        POPC     C34      CTL2    -0.180000       12.0110           0
       369 MEMB     3        POPC     H4X      HAL2     0.900000E-01   1.00800           0
       370 MEMB     3        POPC     H4Y      HAL2     0.900000E-01   1.00800           0
       371 MEMB     3        POPC     C35      CTL2    -0.180000       12.0110           0
       372 MEMB     3        POPC     H5X      HAL2     0.900000E-01   1.00800           0
       373 MEMB     3        POPC     H5Y      HAL2     0.900000E-01   1.00800           0
       374 MEMB     3        POPC     C36      CTL2    -0.180000       12.0110           0
       375 MEMB     3        POPC     H6X      HAL2     0.900000E-01   1.00800           0
       376 MEMB     3        POPC     H6Y      HAL2     0.900000E-01   1.00800           0
       377 MEMB     3        POPC     C37      CTL2    -0.180000       12.0110           0
       378 MEMB     3        POPC     H7X      HAL2     0.900000E-01   1.00800           0
       379 MEMB     3        POPC     H7Y      HAL2     0.900000E-01   1.00800           0
       380 MEMB     3        POPC     C38      CTL2    -0.180000       12.0110           0
       381 MEMB     3        POPC     H8X      HAL2     0.900000E-01   1.00800           0
       382 MEMB     3        POPC     H8Y      HAL2     0.900000E-01   1.00800           0
       383 MEMB     3        POPC     C39      CTL2    -0.180000       12.0110           0
       384 MEMB     3        POPC     H9X      HAL2     0.900000E-01   1.00800           0
       385 MEMB     3        POPC     H9Y      HAL2     0.900000E-01   1.00800           0
       386 MEMB     3        POPC     C310     CTL2    -0.180000       12.0110           0
       387 MEMB     3        POPC     H10X     HAL2     0.900000E-01   1.00800           0
       388 MEMB     3        POPC     H10Y     HAL2     0.900000E-01   1.00800           0
       389 MEMB     3        POPC     C311     CTL2    -0.180000       12.0110           0
       390 MEMB     3        POPC     H11X     HAL2     0.900000E-01   1.00800           0
       391 MEMB     3        POPC     H11Y     HAL2     0.900000E-01   1.00800           0
       392 MEMB     3        POPC     C312     CTL2    -0.180000       12.0110           0
       393 MEMB     3        POPC     H12X     HAL2     0.900000E-01   1.00800           0
       394 MEMB     3        POPC     H12Y     HAL2     0.900000E-01   1.00800           0
       395 MEMB     3        POPC     C313     CTL2    -0.180000       12.0110           0
       396 MEMB     3        POPC     H13X     HAL2     0.900000E-01   1.00800           0
       397 MEMB     3        POPC     H13Y     HAL2     0.900000E-01   1.00800           0
       398 MEMB     3        POPC     C314     CTL2    -0.180000       12.0110           0
       399 MEMB     3        POPC     H14X     HAL2     0.900000E-01   1.00800           0
       400 MEMB     3        POPC     H14Y     HAL2     0.900000E-01   1.00800           0
       401 MEMB     3        POPC     C315     CTL2    -0.180000       12.0110           0
       402 MEMB     3        POPC     H15X     HAL2     0.900000E-01   1.00800           0
       403 MEMB     3        POPC     H15Y     HAL2     0.900000E-01   1.00800           0
       404 MEMB     3        POPC     C316     CTL3    -0.270000       12.0110           0
       405 MEMB     3        POPC     H16X     HAL3     0.900000E-01   1.00800           0
       406 MEMB     3        POPC     H16Y     HAL3     0.900000E-01   1.00800           0
       407 MEMB     3        POPC     H16Z     HAL3     0.900000E-01   1.00800           0
       408 MEMB     4        CHL1     C3       CRL1     0.140000       12.0110           0
       409 MEMB     4        CHL1     H3       HGA1     0.900000E-01   1.00800           0
       410 MEMB     4        CHL1     O3       OHL     -0.660000       15.9994           0
       411 MEMB     4        CHL1     H3'      HOL      0.430000       1.00800           0
       412 MEMB     4        CHL1     C4       CRL2    -0.180000       12.0110           0
       413 MEMB     4        CHL1     H4A      HGA2     0.900000E-01   1.00800           0
       414 MEMB     4        CHL1     H4B      HGA2     0.900000E-01   1.00800           0
       415 MEMB     4        CHL1     C5       CEL1      0.00000       12.0110           0
       416 MEMB     4        CHL1     C6       CEL1    -0.150000       12.0110           0
       417 MEMB     4        CHL1     H6       HEL1     0.150000       1.00800           0
       418 MEMB     4        CHL1     C7       CRL2    -0.180000       12.0110           0
       419 MEMB     4        CHL1     H7A      HGA2     0.900000E-01   1.00800           0
       420 MEMB     4        CHL1     H7B      HGA2     0.900000E-01   1.00800           0
       421 MEMB     4        CHL1     C8       CRL1    -0.900000E-01   12.0110           0
       422 MEMB     4        CHL1     H8       HGA1     0.900000E-01   1.00800           0
       423 MEMB     4        CHL1     C14      CRL1    -0.900000E-01   12.0110           0
       424 MEMB     4        CHL1     H14      HGA1     0.900000E-01   1.00800           0
       425 MEMB     4        CHL1     C15      CRL2    -0.180000       12.0110           0
       426 MEMB     4        CHL1     H15A     HGA2     0.900000E-01   1.00800           0
       427 MEMB     4        CHL1     H15B     HGA2     0.900000E-01   1.00800           0
       428 MEMB     4        CHL1     C16      CRL2    -0.180000       12.0110           0
       429 MEMB     4        CHL1     H16A     HGA2     0.900000E-01   1.00800           0
       430 MEMB     4        CHL1     H16B     HGA2     0.900000E-01   1.00800           0
       431 MEMB     4        CHL1     C17      CRL1    -0.900000E-01   12.0110           0
       432 MEMB     4        CHL1     H17      HGA1     0.900000E-01   1.00800           0
       433 MEMB     4        CHL1     C13      CRL1      0.00000       12.0110           0
       434 MEMB     4        CHL1     C18      CTL3    -0.270000       12.0110           0
       435 MEMB     4        CHL1     H18A     HAL3     0.900000E-01   1.00800           0
       436 MEMB     4        CHL1     H18B     HAL3     0.900000E-01   1.00800           0
       437 MEMB     4        CHL1     H18C     HAL3     0.900000E-01   1.00800           0
       438 MEMB     4        CHL1     C12      CRL2    -0.180000       12.0110           0
       439 MEMB     4        CHL1     H12A     HGA2     0.900000E-01   1.00800           0
       440 MEMB     4        CHL1     H12B     HGA2     0.900000E-01   1.00800           0
       441 MEMB     4        CHL1     C11      CRL2    -0.180000       12.0110           0
       442 MEMB     4        CHL1     H11A     HGA2     0.900000E-01   1.00800           0
       443 MEMB     4        CHL1     H11B     HGA2     0.900000E-01   1.00800           0
       444 MEMB     4        CHL1     C9       CRL1    -0.900000E-01   12.0110           0
       445 MEMB     4        CHL1     H9       HGA1     0.900000E-01   1.00800           0
       446 MEMB     4        CHL1     C10      CRL1      0.00000       12.0110           0
       447 MEMB     4        CHL1     C19      CTL3    -0.270000       12.0110           0
       448 MEMB     4        CHL1     H19A     HAL3     0.900000E-01   1.00800           0
       449 MEMB     4        CHL1     H19B     HAL3     0.900000E-01   1.00800           0
       450 MEMB     4        CHL1     H19C     HAL3     0.900000E-01   1.00800           0
       451 MEMB     4        CHL1     C1       CRL2    -0.180000       12.0110           0
       452 MEMB     4        CHL1     H1A      HGA2     0.900000E-01   1.00800           0
       453 MEMB     4        CHL1     H1B      HGA2     0.900000E-01   1.00800           0
       454 MEMB     4        CHL1     C2       CRL2    -0.180000       12.0110           0
       455 MEMB     4        CHL1     H2A      HGA2     0.900000E-01   1.00800           0
       456 MEMB     4        CHL1     H2B      HGA2     0.900000E-01   1.00800           0
       457 MEMB     4        CHL1     C20      CTL1    -0.900000E-01   12.0110           0
       458 MEMB     4        CHL1     H20      HAL1     0.900000E-01   1.00800           0
       459 MEMB     4        CHL1     C21      CTL3    -0.270000       12.0110           0
       460 MEMB     4        CHL1     H21A     HAL3     0.900000E-01   1.00800           0
       461 MEMB     4        CHL1     H21B     HAL3     0.900000E-01   1.00800           0
       462 MEMB     4        CHL1     H21C     HAL3     0.900000E-01   1.00800           0
       463 MEMB     4        CHL1     C22      CTL2    -0.180000       12.0110           0
       464 MEMB     4        CHL1     H22A     HAL2     0.900000E-01   1.00800           0
       465 MEMB     4        CHL1     H22B     HAL2     0.900000E-01   1.00800           0
       466 MEMB     4        CHL1     C23      CTL2    -0.180000       12.0110           0
       467 MEMB     4        CHL1     H23A     HAL2     0.900000E-01   1.00800           0
       468 MEMB     4        CHL1     H23B     HAL2     0.900000E-01   1.00800           0
       469 MEMB     4        CHL1     C24      CTL2    -0.180000       12.0110           0
       470 MEMB     4        CHL1     H24A     HAL2     0.900000E-01   1.00800           0
       471 MEMB     4        CHL1     H24B     HAL2     0.900000E-01   1.00800           0
       472 MEMB     4        CHL1     C25      CTL1    -0.900000E-01   12.0110           0
       473 MEMB     4        CHL1     H25      HAL1     0.900000E-01   1.00800           0
       474 MEMB     4        CHL1     C26      CTL3    -0.270000       12.0110           0
       475 MEMB     4        CHL1     H26A     HAL3     0.900000E-01   1.00800           0
       476 MEMB     4        CHL1     H26B     HAL3     0.900000E-01   1.00800           0
       477 MEMB     4        CHL1     H26C     HAL3     0.900000E-01   1.00800           0
       478 MEMB     4        CHL1     C27      CTL3    -0.270000       12.0110           0
       479 MEMB     4        CHL1     H27A     HAL3     0.900000E-01   1.00800           0
       480 MEMB     4        CHL1     H27B     HAL3     0.900000E-01   1.00800           0
       481 MEMB     4        CHL1     H27C     HAL3     0.900000E-01   1.00800           0
       482 MEMB     5        OSM      N        NTL     -0.600000       14.0070           0
       483 MEMB     5        OSM      C15      CTL5    -0.350000       12.0110           0
       484 MEMB     5        OSM      H15A     HL       0.250000       1.00800           0
       485 MEMB     5        OSM      H15B     HL       0.250000       1.00800           0
       486 MEMB     5        OSM      H15C     HL       0.250000       1.00800           0
       487 MEMB     5        OSM      C14      CTL5    -0.350000       12.0110           0
       488 MEMB     5        OSM      H14A     HL       0.250000       1.00800           0
       489 MEMB     5        OSM      H14B     HL       0.250000       1.00800           0
       490 MEMB     5        OSM      H14C     HL       0.250000       1.00800           0
       491 MEMB     5        OSM      C13      CTL5    -0.350000       12.0110           0
       492 MEMB     5        OSM      H13A     HL       0.250000       1.00800           0
       493 MEMB     5        OSM      H13B     HL       0.250000       1.00800           0
       494 MEMB     5        OSM      H13C     HL       0.250000       1.00800           0
       495 MEMB     5        OSM      C12      CTL2    -0.100000       12.0110           0
       496 MEMB     5        OSM      H12A     HL       0.250000       1.00800           0
       497 MEMB     5        OSM      H12B     HL       0.250000       1.00800           0
       498 MEMB     5        OSM      C11      CTL2    -0.800000E-01   12.0110           0
       499 MEMB     5        OSM      H11A     HAL2     0.900000E-01   1.00800           0
       500 MEMB     5        OSM      H11B     HAL2     0.900000E-01   1.00800           0
       501 MEMB     5        OSM      P        PL        1.50000       30.9740           0
       502 MEMB     5        OSM      O13      O2L     -0.780000       15.9994           0
       503 MEMB     5        OSM      O14      O2L     -0.780000       15.9994           0
       504 MEMB     5        OSM      O11      OSLP    -0.570000       15.9994           0
       505 MEMB     5        OSM      O12      OSLP    -0.570000       15.9994           0
       506 MEMB     5        OSM      C1S      CTL2    -0.800000E-01   12.0110           0
       507 MEMB     5        OSM      H1S      HAL2     0.900000E-01   1.00800           0
       508 MEMB     5        OSM      H1T      HAL2     0.900000E-01   1.00800           0
       509 MEMB     5        OSM      NF       NHL     -0.700000       14.0070           0
       510 MEMB     5        OSM      HNF      H        0.350000       1.00800           0
       511 MEMB     5        OSM      C2S      CTL1     0.300000       12.0110           0
       512 MEMB     5        OSM      H2S      HAL1     0.500000E-01   1.00800           0
       513 MEMB     5        OSM      C3S      CTO1     0.500000       12.0110           0
       514 MEMB     5        OSM      H3S      HAL1    -0.110000       1.00800           0
       515 MEMB     5        OSM      O3       OHL     -0.690000       15.9994           0
       516 MEMB     5        OSM      HO3      HOL      0.300000       1.00800           0
       517 MEMB     5        OSM      C4S      CEL3    -0.150000       12.0110           0
       518 MEMB     5        OSM      H4S      HEL1     0.150000       1.00800           0
       519 MEMB     5        OSM      C5S      CEL3    -0.150000       12.0110           0
       520 MEMB     5        OSM      H5S      HEL1     0.150000       1.00800           0
       521 MEMB     5        OSM      C6S      CTL2    -0.180000       12.0110           0
       522 MEMB     5        OSM      H6S      HAL2     0.900000E-01   1.00800           0
       523 MEMB     5        OSM      H6T      HAL2     0.900000E-01   1.00800           0
       524 MEMB     5        OSM      C7S      CTL2    -0.180000       12.0110           0
       525 MEMB     5        OSM      H7S      HAL2     0.900000E-01   1.00800           0
       526 MEMB     5        OSM      H7T      HAL2     0.900000E-01   1.00800           0
       527 MEMB     5        OSM      C8S      CTL2    -0.180000       12.0110           0
       528 MEMB     5        OSM      H8S      HAL2     0.900000E-01   1.00800           0
       529 MEMB     5        OSM      H8T      HAL2     0.900000E-01   1.00800           0
       530 MEMB     5        OSM      C9S      CTL2    -0.180000       12.0110           0
       531 MEMB     5        OSM      H9S      HAL2     0.900000E-01   1.00800           0
       532 MEMB     5        OSM      H9T      HAL2     0.900000E-01   1.00800           0
       533 MEMB     5        OSM      C10S     CTL2    -0.180000       12.0110           0
       534 MEMB     5        OSM      H10S     HAL2     0.900000E-01   1.00800           0
       535 MEMB     5        OSM      H10T     HAL2     0.900000E-01   1.00800           0
       536 MEMB     5        OSM      C11S     CTL2    -0.180000       12.0110           0
       537 MEMB     5        OSM      H11S     HAL2     0.900000E-01   1.00800           0
       538 MEMB     5        OSM      H11T     HAL2     0.900000E-01   1.00800           0
       539 MEMB     5        OSM      C12S     CTL2    -0.180000       12.0110           0
       540 MEMB     5        OSM      H12S     HAL2     0.900000E-01   1.00800           0
       541 MEMB     5        OSM      H12T     HAL2     0.900000E-01   1.00800           0
       542 MEMB     5        OSM      C13S     CTL2    -0.180000       12.0110           0
       543 MEMB     5        OSM      H13S     HAL2     0.900000E-01   1.00800           0
       544 MEMB     5        OSM      H13T     HAL2     0.900000E-01   1.00800           0
       545 MEMB     5        OSM      C14S     CTL2    -0.180000       12.0110           0
       546 MEMB     5        OSM      H14S     HAL2     0.900000E-01   1.00800           0
       547 MEMB     5        OSM      H14T     HAL2     0.900000E-01   1.00800           0
       548 MEMB     5        OSM      C15S     CTL2    -0.180000       12.0110           0
       549 MEMB     5        OSM      H15S     HAL2     0.900000E-01   1.00800           0
       550 MEMB     5        OSM      H15T     HAL2     0.900000E-01   1.00800           0
       551 MEMB     5        OSM      C16S     CTL2    -0.180000       12.0110           0
       552 MEMB     5        OSM      H16S     HAL2     0.900000E-01   1.00800           0
       553 MEMB     5        OSM      H16T     HAL2     0.900000E-01   1.00800           0
       554 MEMB     5        OSM      C17S     CTL2    -0.180000       12.0110           0
       555 MEMB     5        OSM      H17S     HAL2     0.900000E-01   1.00800           0
       556 MEMB     5        OSM      H17T     HAL2     0.900000E-01   1.00800           0
       557 MEMB     5        OSM      C18S     CTL3    -0.270000       12.0110           0
       558 MEMB     5        OSM      H18S     HAL3     0.900000E-01   1.00800           0
       559 MEMB     5        OSM      H18T     HAL3     0.900000E-01   1.00800           0
       560 MEMB     5        OSM      H18U     HAL3     0.900000E-01   1.00800           0
       561 MEMB     5        OSM      C1F      C        0.550000       12.0110           0
       562 MEMB     5        OSM      OF       O       -0.600000       15.9994           0
       563 MEMB     5        OSM      C2F      CTL2    -0.700000E-01   12.0110           0
       564 MEMB     5        OSM      H2F      HAL2     0.600000E-01   1.00800           0
       565 MEMB     5        OSM      H2G      HAL2     0.600000E-01   1.00800           0
       566 MEMB     5        OSM      C3F      CTL2    -0.180000       12.0110           0
       567 MEMB     5        OSM      H3F      HAL2     0.900000E-01   1.00800           0
       568 MEMB     5        OSM      H3G      HAL2     0.900000E-01   1.00800           0
       569 MEMB     5        OSM      C4F      CTL2    -0.180000       12.0110           0
       570 MEMB     5        OSM      H4F      HAL2     0.900000E-01   1.00800           0
       571 MEMB     5        OSM      H4G      HAL2     0.900000E-01   1.00800           0
       572 MEMB     5        OSM      C5F      CTL2    -0.180000       12.0110           0
       573 MEMB     5        OSM      H5F      HAL2     0.900000E-01   1.00800           0
       574 MEMB     5        OSM      H5G      HAL2     0.900000E-01   1.00800           0
       575 MEMB     5        OSM      C6F      CTL2    -0.180000       12.0110           0
       576 MEMB     5        OSM      H6F      HAL2     0.900000E-01   1.00800           0
       577 MEMB     5        OSM      H6G      HAL2     0.900000E-01   1.00800           0
       578 MEMB     5        OSM      C7F      CTL2    -0.180000       12.0110           0
       579 MEMB     5        OSM      H7F      HAL2     0.900000E-01   1.00800           0
       580 MEMB     5        OSM      H7G      HAL2     0.900000E-01   1.00800           0
       581 MEMB     5        OSM      C8F      CTL2    -0.180000       12.0110           0
       582 MEMB     5        OSM      H8F      HAL2     0.900000E-01   1.00800           0
       583 MEMB     5        OSM      H8G      HAL2     0.900000E-01   1.00800           0
       584 MEMB     5        OSM      C9F      CEL1    -0.150000       12.0110           0
       585 MEMB     5        OSM      H9F      HEL1     0.150000       1.00800           0
       586 MEMB     5        OSM      C10F     CEL1    -0.150000       12.0110           0
       587 MEMB     5        OSM      H10F     HEL1     0.150000       1.00800           0
       588 MEMB     5        OSM      C11F     CTL2    -0.180000       12.0110           0
       589 MEMB     5        OSM      H11F     HAL2     0.900000E-01   1.00800           0
       590 MEMB     5        OSM      H11G     HAL2     0.900000E-01   1.00800           0
       591 MEMB     5        OSM      C12F     CTL2    -0.180000       12.0110           0
       592 MEMB     5        OSM      H12F     HAL2     0.900000E-01   1.00800           0
       593 MEMB     5        OSM      H12G     HAL2     0.900000E-01   1.00800           0
       594 MEMB     5        OSM      C13F     CTL2    -0.180000       12.0110           0
       595 MEMB     5        OSM      H13F     HAL2     0.900000E-01   1.00800           0
       596 MEMB     5        OSM      H13G     HAL2     0.900000E-01   1.00800           0
       597 MEMB     5        OSM      C14F     CTL2    -0.180000       12.0110           0
       598 MEMB     5        OSM      H14F     HAL2     0.900000E-01   1.00800           0
       599 MEMB     5        OSM      H14G     HAL2     0.900000E-01   1.00800           0
       600 MEMB     5        OSM      C15F     CTL2    -0.180000       12.0110           0
       601 MEMB     5        OSM      H15F     HAL2     0.900000E-01   1.00800           0
       602 MEMB     5        OSM      H15G     HAL2     0.900000E-01   1.00800           0
       603 MEMB     5        OSM      C16F     CTL2    -0.180000       12.0110           0
       604 MEMB     5        OSM      H16F     HAL2     0.900000E-01   1.00800           0
       605 MEMB     5        OSM      H16G     HAL2     0.900000E-01   1.00800           0
       606 MEMB     5        OSM      C17F     CTL2    -0.180000       12.0110           0
       607 MEMB     5        OSM      H17F     HAL2     0.900000E-01   1.00800           0
       608 MEMB     5        OSM      H17G     HAL2     0.900000E-01   1.00800           0
       609 MEMB     5        OSM      C18F     CTL3    -0.270000       12.0110           0
       610 MEMB     5        OSM      H18F     HAL3     0.900000E-01   1.00800           0
       611 MEMB     5        OSM      H18G     HAL3     0.900000E-01   1.00800           0
       612 MEMB     5        OSM      H18H     HAL3     0.900000E-01   1.00800           0
       613 MEMB     6        SAPE     N        NH3L    -0.300000       14.0070           0
       614 MEMB     6        SAPE     HN1      HCL      0.330000       1.00800           0
       615 MEMB     6        SAPE     HN2      HCL      0.330000       1.00800           0
       616 MEMB     6        SAPE     HN3      HCL      0.330000       1.00800           0
       617 MEMB     6        SAPE     C12      CTL2     0.130000       12.0110           0
       618 MEMB     6        SAPE     H12A     HAL2     0.900000E-01   1.00800           0
       619 MEMB     6        SAPE     H12B     HAL2     0.900000E-01   1.00800           0
       620 MEMB     6        SAPE     C11      CTL2    -0.800000E-01   12.0110           0
       621 MEMB     6        SAPE     H11A     HAL2     0.900000E-01   1.00800           0
       622 MEMB     6        SAPE     H11B     HAL2     0.900000E-01   1.00800           0
       623 MEMB     6        SAPE     P        PL        1.50000       30.9740           0
       624 MEMB     6        SAPE     O13      O2L     -0.780000       15.9994           0
       625 MEMB     6        SAPE     O14      O2L     -0.780000       15.9994           0
       626 MEMB     6        SAPE     O12      OSLP    -0.570000       15.9994           0
       627 MEMB     6        SAPE     O11      OSLP    -0.570000       15.9994           0
       628 MEMB     6        SAPE     C1       CTL2    -0.800000E-01   12.0110           0
       629 MEMB     6        SAPE     HA       HAL2     0.900000E-01   1.00800           0
       630 MEMB     6        SAPE     HB       HAL2     0.900000E-01   1.00800           0
       631 MEMB     6        SAPE     C2       CTL1     0.170000       12.0110           0
       632 MEMB     6        SAPE     HS       HAL1     0.900000E-01   1.00800           0
       633 MEMB     6        SAPE     O21      OSL     -0.490000       15.9994           0
       634 MEMB     6        SAPE     C21      CL       0.900000       12.0110           0
       635 MEMB     6        SAPE     O22      OBL     -0.630000       15.9994           0
       636 MEMB     6        SAPE     C22      CTL2    -0.220000       12.0110           0
       637 MEMB     6        SAPE     H2R      HAL2     0.900000E-01   1.00800           0
       638 MEMB     6        SAPE     H2S      HAL2     0.900000E-01   1.00800           0
       639 MEMB     6        SAPE     C3       CTL2     0.800000E-01   12.0110           0
       640 MEMB     6        SAPE     HX       HAL2     0.900000E-01   1.00800           0
       641 MEMB     6        SAPE     HY       HAL2     0.900000E-01   1.00800           0
       642 MEMB     6        SAPE     O31      OSL     -0.490000       15.9994           0
       643 MEMB     6        SAPE     C31      CL       0.900000       12.0110           0
       644 MEMB     6        SAPE     O32      OBL     -0.630000       15.9994           0
       645 MEMB     6        SAPE     C32      CTL2    -0.220000       12.0110           0
       646 MEMB     6        SAPE     H2X      HAL2     0.900000E-01   1.00800           0
       647 MEMB     6        SAPE     H2Y      HAL2     0.900000E-01   1.00800           0
       648 MEMB     6        SAPE     C23      CTL2    -0.180000       12.0110           0
       649 MEMB     6        SAPE     H3R      HAL2     0.900000E-01   1.00800           0
       650 MEMB     6        SAPE     H3S      HAL2     0.900000E-01   1.00800           0
       651 MEMB     6        SAPE     C24      CTL2    -0.180000       12.0110           0
       652 MEMB     6        SAPE     H4R      HAL2     0.900000E-01   1.00800           0
       653 MEMB     6        SAPE     H4S      HAL2     0.900000E-01   1.00800           0
       654 MEMB     6        SAPE     C25      CEL1    -0.150000       12.0110           0
       655 MEMB     6        SAPE     H5R      HEL1     0.150000       1.00800           0
       656 MEMB     6        SAPE     C26      CEL1    -0.150000       12.0110           0
       657 MEMB     6        SAPE     H6R      HEL1     0.150000       1.00800           0
       658 MEMB     6        SAPE     C27      CTL2    -0.180000       12.0110           0
       659 MEMB     6        SAPE     H7R      HAL2     0.900000E-01   1.00800           0
       660 MEMB     6        SAPE     H7S      HAL2     0.900000E-01   1.00800           0
       661 MEMB     6        SAPE     C28      CEL1    -0.150000       12.0110           0
       662 MEMB     6        SAPE     H8R      HEL1     0.150000       1.00800           0
       663 MEMB     6        SAPE     C29      CEL1    -0.150000       12.0110           0
       664 MEMB     6        SAPE     H9R      HEL1     0.150000       1.00800           0
       665 MEMB     6        SAPE     C210     CTL2    -0.180000       12.0110           0
       666 MEMB     6        SAPE     H10R     HAL2     0.900000E-01   1.00800           0
       667 MEMB     6        SAPE     H10S     HAL2     0.900000E-01   1.00800           0
       668 MEMB     6        SAPE     C211     CEL1    -0.150000       12.0110           0
       669 MEMB     6        SAPE     H11R     HEL1     0.150000       1.00800           0
       670 MEMB     6        SAPE     C212     CEL1    -0.150000       12.0110           0
       671 MEMB     6        SAPE     H12R     HEL1     0.150000       1.00800           0
       672 MEMB     6        SAPE     C213     CTL2    -0.180000       12.0110           0
       673 MEMB     6        SAPE     H13R     HAL2     0.900000E-01   1.00800           0
       674 MEMB     6        SAPE     H13S     HAL2     0.900000E-01   1.00800           0
       675 MEMB     6        SAPE     C214     CEL1    -0.150000       12.0110           0
       676 MEMB     6        SAPE     H14R     HEL1     0.150000       1.00800           0
       677 MEMB     6        SAPE     C215     CEL1    -0.150000       12.0110           0
       678 MEMB     6        SAPE     H15R     HEL1     0.150000       1.00800           0
       679 MEMB     6        SAPE     C216     CTL2    -0.180000       12.0110           0
       680 MEMB     6        SAPE     H16R     HAL2     0.900000E-01   1.00800           0
       681 MEMB     6        SAPE     H16S     HAL2     0.900000E-01   1.00800           0
       682 MEMB     6        SAPE     C217     CTL2    -0.180000       12.0110           0
       683 MEMB     6        SAPE     H17R     HAL2     0.900000E-01   1.00800           0
       684 MEMB     6        SAPE     H17S     HAL2     0.900000E-01   1.00800           0
       685 MEMB     6        SAPE     C218     CTL2    -0.180000       12.0110           0
       686 MEMB     6        SAPE     H18R     HAL2     0.900000E-01   1.00800           0
       687 MEMB     6        SAPE     H18S     HAL2     0.900000E-01   1.00800           0
       688 MEMB     6        SAPE     C219     CTL2    -0.180000       12.0110           0
       689 MEMB     6        SAPE     H19R     HAL2     0.900000E-01   1.00800           0
       690 MEMB     6        SAPE     H19S     HAL2     0.900000E-01   1.00800           0
       691 MEMB     6        SAPE     C220     CTL3    -0.270000       12.0110           0
       692 MEMB     6        SAPE     H20R     HAL3     0.900000E-01   1.00800           0
       693 MEMB     6        SAPE     H20S     HAL3     0.900000E-01   1.00800           0
       694 MEMB     6        SAPE     H20T     HAL3     0.900000E-01   1.00800           0
       695 MEMB     6        SAPE     C33      CTL2    -0.180000       12.0110           0
       696 MEMB     6        SAPE     H3X      HAL2     0.900000E-01   1.00800           0
       697 MEMB     6        SAPE     H3Y      HAL2     0.900000E-01   1.00800           0
       698 MEMB     6        SAPE     C34      CTL2    -0.180000       12.0110           0
       699 MEMB     6        SAPE     H4X      HAL2     0.900000E-01   1.00800           0
       700 MEMB     6        SAPE     H4Y      HAL2     0.900000E-01   1.00800           0
       701 MEMB     6        SAPE     C35      CTL2    -0.180000       12.0110           0
       702 MEMB     6        SAPE     H5X      HAL2     0.900000E-01   1.00800           0
       703 MEMB     6        SAPE     H5Y      HAL2     0.900000E-01   1.00800           0
       704 MEMB     6        SAPE     C36      CTL2    -0.180000       12.0110           0
       705 MEMB     6        SAPE     H6X      HAL2     0.900000E-01   1.00800           0
       706 MEMB     6        SAPE     H6Y      HAL2     0.900000E-01   1.00800           0
       707 MEMB     6        SAPE     C37      CTL2    -0.180000       12.0110           0
       708 MEMB     6        SAPE     H7X      HAL2     0.900000E-01   1.00800           0
       709 MEMB     6        SAPE     H7Y      HAL2     0.900000E-01   1.00800           0
       710 MEMB     6        SAPE     C38      CTL2    -0.180000       12.0110           0
       711 MEMB     6        SAPE     H8X      HAL2     0.900000E-01   1.00800           0
       712 MEMB     6        SAPE     H8Y      HAL2     0.900000E-01   1.00800           0
       713 MEMB     6        SAPE     C39      CTL2    -0.180000       12.0110           0
       714 MEMB     6        SAPE     H9X      HAL2     0.900000E-01   1.00800           0
       715 MEMB     6        SAPE     H9Y      HAL2     0.900000E-01   1.00800           0
       716 MEMB     6        SAPE     C310     CTL2    -0.180000       12.0110           0
       717 MEMB     6        SAPE     H10X     HAL2     0.900000E-01   1.00800           0
       718 MEMB     6        SAPE     H10Y     HAL2     0.900000E-01   1.00800           0
       719 MEMB     6        SAPE     C311     CTL2    -0.180000       12.0110           0
       720 MEMB     6        SAPE     H11X     HAL2     0.900000E-01   1.00800           0
       721 MEMB     6        SAPE     H11Y     HAL2     0.900000E-01   1.00800           0
       722 MEMB     6        SAPE     C312     CTL2    -0.180000       12.0110           0
       723 MEMB     6        SAPE     H12X     HAL2     0.900000E-01   1.00800           0
       724 MEMB     6        SAPE     H12Y     HAL2     0.900000E-01   1.00800           0
       725 MEMB     6        SAPE     C313     CTL2    -0.180000       12.0110           0
       726 MEMB     6        SAPE     H13X     HAL2     0.900000E-01   1.00800           0
       727 MEMB     6        SAPE     H13Y     HAL2     0.900000E-01   1.00800           0
       728 MEMB     6        SAPE     C314     CTL2    -0.180000       12.0110           0
       729 MEMB     6        SAPE     H14X     HAL2     0.900000E-01   1.00800           0
       730 MEMB     6        SAPE     H14Y     HAL2     0.900000E-01   1.00800           0
       731 MEMB     6        SAPE     C315     CTL2    -0.180000       12.0110           0
       732 MEMB     6        SAPE     H15X     HAL2     0.900000E-01   1.00800           0
       733 MEMB     6        SAPE     H15Y     HAL2     0.900000E-01   1.00800           0
       734 MEMB     6        SAPE     C316     CTL2    -0.180000       12.0110           0
       735 MEMB     6        SAPE     H16X     HAL2     0.900000E-01   1.00800           0
       736 MEMB     6        SAPE     H16Y     HAL2     0.900000E-01   1.00800           0
       737 MEMB     6        SAPE     C317     CTL2    -0.180000       12.0110           0
       738 MEMB     6        SAPE     H17X     HAL2     0.900000E-01   1.00800           0
       739 MEMB     6        SAPE     H17Y     HAL2     0.900000E-01   1.00800           0
       740 MEMB     6        SAPE     C318     CTL3    -0.270000       12.0110           0
       741 MEMB     6        SAPE     H18X     HAL3     0.900000E-01   1.00800           0
       742 MEMB     6        SAPE     H18Y     HAL3     0.900000E-01   1.00800           0
       743 MEMB     6        SAPE     H18Z     HAL3     0.900000E-01   1.00800           0
       744 MEMB     7        CHL1     C3       CRL1     0.140000       12.0110           0
       745 MEMB     7        CHL1     H3       HGA1     0.900000E-01   1.00800           0
       746 MEMB     7        CHL1     O3       OHL     -0.660000       15.9994           0
       747 MEMB     7        CHL1     H3'      HOL      0.430000       1.00800           0
       748 MEMB     7        CHL1     C4       CRL2    -0.180000       12.0110           0
       749 MEMB     7        CHL1     H4A      HGA2     0.900000E-01   1.00800           0
       750 MEMB     7        CHL1     H4B      HGA2     0.900000E-01   1.00800           0
       751 MEMB     7        CHL1     C5       CEL1      0.00000       12.0110           0
       752 MEMB     7        CHL1     C6       CEL1    -0.150000       12.0110           0
       753 MEMB     7        CHL1     H6       HEL1     0.150000       1.00800           0
       754 MEMB     7        CHL1     C7       CRL2    -0.180000       12.0110           0
       755 MEMB     7        CHL1     H7A      HGA2     0.900000E-01   1.00800           0
       756 MEMB     7        CHL1     H7B      HGA2     0.900000E-01   1.00800           0
       757 MEMB     7        CHL1     C8       CRL1    -0.900000E-01   12.0110           0
       758 MEMB     7        CHL1     H8       HGA1     0.900000E-01   1.00800           0
       759 MEMB     7        CHL1     C14      CRL1    -0.900000E-01   12.0110           0
       760 MEMB     7        CHL1     H14      HGA1     0.900000E-01   1.00800           0
       761 MEMB     7        CHL1     C15      CRL2    -0.180000       12.0110           0
       762 MEMB     7        CHL1     H15A     HGA2     0.900000E-01   1.00800           0
       763 MEMB     7        CHL1     H15B     HGA2     0.900000E-01   1.00800           0
       764 MEMB     7        CHL1     C16      CRL2    -0.180000       12.0110           0
       765 MEMB     7        CHL1     H16A     HGA2     0.900000E-01   1.00800           0
       766 MEMB     7        CHL1     H16B     HGA2     0.900000E-01   1.00800           0
       767 MEMB     7        CHL1     C17      CRL1    -0.900000E-01   12.0110           0
       768 MEMB     7        CHL1     H17      HGA1     0.900000E-01   1.00800           0
       769 MEMB     7        CHL1     C13      CRL1      0.00000       12.0110           0
       770 MEMB     7        CHL1     C18      CTL3    -0.270000       12.0110           0
       771 MEMB     7        CHL1     H18A     HAL3     0.900000E-01   1.00800           0
       772 MEMB     7        CHL1     H18B     HAL3     0.900000E-01   1.00800           0
       773 MEMB     7        CHL1     H18C     HAL3     0.900000E-01   1.00800           0
       774 MEMB     7        CHL1     C12      CRL2    -0.180000       12.0110           0
       775 MEMB     7        CHL1     H12A     HGA2     0.900000E-01   1.00800           0
       776 MEMB     7        CHL1     H12B     HGA2     0.900000E-01   1.00800           0
       777 MEMB     7        CHL1     C11      CRL2    -0.180000       12.0110           0
       778 MEMB     7        CHL1     H11A     HGA2     0.900000E-01   1.00800           0
       779 MEMB     7        CHL1     H11B     HGA2     0.900000E-01   1.00800           0
       780 MEMB     7        CHL1     C9       CRL1    -0.900000E-01   12.0110           0
       781 MEMB     7        CHL1     H9       HGA1     0.900000E-01   1.00800           0
       782 MEMB     7        CHL1     C10      CRL1      0.00000       12.0110           0
       783 MEMB     7        CHL1     C19      CTL3    -0.270000       12.0110           0
       784 MEMB     7        CHL1     H19A     HAL3     0.900000E-01   1.00800           0
       785 MEMB     7        CHL1     H19B     HAL3     0.900000E-01   1.00800           0
       786 MEMB     7        CHL1     H19C     HAL3     0.900000E-01   1.00800           0
       787 MEMB     7        CHL1     C1       CRL2    -0.180000       12.0110           0
       788 MEMB     7        CHL1     H1A      HGA2     0.900000E-01   1.00800           0
       789 MEMB     7        CHL1     H1B      HGA2     0.900000E-01   1.00800           0
       790 MEMB     7        CHL1     C2       CRL2    -0.180000       12.0110           0
       791 MEMB     7        CHL1     H2A      HGA2     0.900000E-01   1.00800           0
       792 MEMB     7        CHL1     H2B      HGA2     0.900000E-01   1.00800           0
       793 MEMB     7        CHL1     C20      CTL1    -0.900000E-01   12.0110           0
       794 MEMB     7        CHL1     H20      HAL1     0.900000E-01   1.00800           0
       795 MEMB     7        CHL1     C21      CTL3    -0.270000       12.0110           0
       796 MEMB     7        CHL1     H21A     HAL3     0.900000E-01   1.00800           0
       797 MEMB     7        CHL1     H21B     HAL3     0.900000E-01   1.00800           0
       798 MEMB     7        CHL1     H21C     HAL3     0.900000E-01   1.00800           0
       799 MEMB     7        CHL1     C22      CTL2    -0.180000       12.0110           0
       800 MEMB     7        CHL1     H22A     HAL2     0.900000E-01   1.00800           0
       801 MEMB     7        CHL1     H22B     HAL2     0.900000E-01   1.00800           0
       802 MEMB     7        CHL1     C23      CTL2    -0.180000       12.0110           0
       803 MEMB     7        CHL1     H23A     HAL2     0.900000E-01   1.00800           0
       804 MEMB     7        CHL1     H23B     HAL2     0.900000E-01   1.00800           0
       805 MEMB     7        CHL1     C24      CTL2    -0.180000       12.0110           0
       806 MEMB     7        CHL1     H24A     HAL2     0.900000E-01   1.00800           0
       807 MEMB     7        CHL1     H24B     HAL2     0.900000E-01   1.00800           0
       808 MEMB     7        CHL1     C25      CTL1    -0.900000E-01   12.0110           0
       809 MEMB     7        CHL1     H25      HAL1     0.900000E-01   1.00800           0
       810 MEMB     7        CHL1     C26      CTL3    -0.270000       12.0110           0
       811 MEMB     7        CHL1     H26A     HAL3     0.900000E-01   1.00800           0
       812 MEMB     7        CHL1     H26B     HAL3     0.900000E-01   1.00800           0
       813 MEMB     7        CHL1     H26C     HAL3     0.900000E-01   1.00800           0
       814 MEMB     7        CHL1     C27      CTL3    -0.270000       12.0110           0
       815 MEMB     7        CHL1     H27A     HAL3     0.900000E-01   1.00800           0
       816 MEMB     7        CHL1     H27B     HAL3     0.900000E-01   1.00800           0
       817 MEMB     7        CHL1     H27C     HAL3     0.900000E-01   1.00800           0
       818 MEMB     8        SAPC     N        NTL     -0.600000       14.0070           0
       819 MEMB     8        SAPC     C12      CTL2    -0.100000       12.0110           0
       820 MEMB     8        SAPC     H12A     HL       0.250000       1.00800           0
       821 MEMB     8        SAPC     H12B     HL       0.250000       1.00800           0
       822 MEMB     8        SAPC     C13      CTL5    -0.350000       12.0110           0
       823 MEMB     8        SAPC     H13A     HL       0.250000       1.00800           0
       824 MEMB     8        SAPC     H13B     HL       0.250000       1.00800           0
       825 MEMB     8        SAPC     H13C     HL       0.250000       1.00800           0
       826 MEMB     8        SAPC     C14      CTL5    -0.350000       12.0110           0
       827 MEMB     8        SAPC     H14A     HL       0.250000       1.00800           0
       828 MEMB     8        SAPC     H14B     HL       0.250000       1.00800           0
       829 MEMB     8        SAPC     H14C     HL       0.250000       1.00800           0
       830 MEMB     8        SAPC     C15      CTL5    -0.350000       12.0110           0
       831 MEMB     8        SAPC     H15A     HL       0.250000       1.00800           0
       832 MEMB     8        SAPC     H15B     HL       0.250000       1.00800           0
       833 MEMB     8        SAPC     H15C     HL       0.250000       1.00800           0
       834 MEMB     8        SAPC     C11      CTL2    -0.800000E-01   12.0110           0
       835 MEMB     8        SAPC     H11A     HAL2     0.900000E-01   1.00800           0
       836 MEMB     8        SAPC     H11B     HAL2     0.900000E-01   1.00800           0
       837 MEMB     8        SAPC     P        PL        1.50000       30.9740           0
       838 MEMB     8        SAPC     O13      O2L     -0.780000       15.9994           0
       839 MEMB     8        SAPC     O14      O2L     -0.780000       15.9994           0
       840 MEMB     8        SAPC     O12      OSLP    -0.570000       15.9994           0
       841 MEMB     8        SAPC     O11      OSLP    -0.570000       15.9994           0
       842 MEMB     8        SAPC     C1       CTL2    -0.800000E-01   12.0110           0
       843 MEMB     8        SAPC     HA       HAL2     0.900000E-01   1.00800           0
       844 MEMB     8        SAPC     HB       HAL2     0.900000E-01   1.00800           0
       845 MEMB     8        SAPC     C2       CTL1     0.170000       12.0110           0
       846 MEMB     8        SAPC     HS       HAL1     0.900000E-01   1.00800           0
       847 MEMB     8        SAPC     O21      OSL     -0.490000       15.9994           0
       848 MEMB     8        SAPC     C21      CL       0.900000       12.0110           0
       849 MEMB     8        SAPC     O22      OBL     -0.630000       15.9994           0
       850 MEMB     8        SAPC     C22      CTL2    -0.220000       12.0110           0
       851 MEMB     8        SAPC     H2R      HAL2     0.900000E-01   1.00800           0
       852 MEMB     8        SAPC     H2S      HAL2     0.900000E-01   1.00800           0
       853 MEMB     8        SAPC     C3       CTL2     0.800000E-01   12.0110           0
       854 MEMB     8        SAPC     HX       HAL2     0.900000E-01   1.00800           0
       855 MEMB     8        SAPC     HY       HAL2     0.900000E-01   1.00800           0
       856 MEMB     8        SAPC     O31      OSL     -0.490000       15.9994           0
       857 MEMB     8        SAPC     C31      CL       0.900000       12.0110           0
       858 MEMB     8        SAPC     O32      OBL     -0.630000       15.9994           0
       859 MEMB     8        SAPC     C32      CTL2    -0.220000       12.0110           0
       860 MEMB     8        SAPC     H2X      HAL2     0.900000E-01   1.00800           0
       861 MEMB     8        SAPC     H2Y      HAL2     0.900000E-01   1.00800           0
       862 MEMB     8        SAPC     C23      CTL2    -0.180000       12.0110           0
       863 MEMB     8        SAPC     H3R      HAL2     0.900000E-01   1.00800           0
       864 MEMB     8        SAPC     H3S      HAL2     0.900000E-01   1.00800           0
       865 MEMB     8        SAPC     C24      CTL2    -0.180000       12.0110           0
       866 MEMB     8        SAPC     H4R      HAL2     0.900000E-01   1.00800           0
       867 MEMB     8        SAPC     H4S      HAL2     0.900000E-01   1.00800           0
       868 MEMB     8        SAPC     C25      CEL1    -0.150000       12.0110           0
       869 MEMB     8        SAPC     H5R      HEL1     0.150000       1.00800           0
       870 MEMB     8        SAPC     C26      CEL1    -0.150000       12.0110           0
       871 MEMB     8        SAPC     H6R      HEL1     0.150000       1.00800           0
       872 MEMB     8        SAPC     C27      CTL2    -0.180000       12.0110           0
       873 MEMB     8        SAPC     H7R      HAL2     0.900000E-01   1.00800           0
       874 MEMB     8        SAPC     H7S      HAL2     0.900000E-01   1.00800           0
       875 MEMB     8        SAPC     C28      CEL1    -0.150000       12.0110           0
       876 MEMB     8        SAPC     H8R      HEL1     0.150000       1.00800           0
       877 MEMB     8        SAPC     C29      CEL1    -0.150000       12.0110           0
       878 MEMB     8        SAPC     H9R      HEL1     0.150000       1.00800           0
       879 MEMB     8        SAPC     C210     CTL2    -0.180000       12.0110           0
       880 MEMB     8        SAPC     H10R     HAL2     0.900000E-01   1.00800           0
       881 MEMB     8        SAPC     H10S     HAL2     0.900000E-01   1.00800           0
       882 MEMB     8        SAPC     C211     CEL1    -0.150000       12.0110           0
       883 MEMB     8        SAPC     H11R     HEL1     0.150000       1.00800           0
       884 MEMB     8        SAPC     C212     CEL1    -0.150000       12.0110           0
       885 MEMB     8        SAPC     H12R     HEL1     0.150000       1.00800           0
       886 MEMB     8        SAPC     C213     CTL2    -0.180000       12.0110           0
       887 MEMB     8        SAPC     H13R     HAL2     0.900000E-01   1.00800           0
       888 MEMB     8        SAPC     H13S     HAL2     0.900000E-01   1.00800           0
       889 MEMB     8        SAPC     C214     CEL1    -0.150000       12.0110           0
       890 MEMB     8        SAPC     H14R     HEL1     0.150000       1.00800           0
       891 MEMB     8        SAPC     C215     CEL1    -0.150000       12.0110           0
       892 MEMB     8        SAPC     H15R     HEL1     0.150000       1.00800           0
       893 MEMB     8        SAPC     C216     CTL2    -0.180000       12.0110           0
       894 MEMB     8        SAPC     H16R     HAL2     0.900000E-01   1.00800           0
       895 MEMB     8        SAPC     H16S     HAL2     0.900000E-01   1.00800           0
       896 MEMB     8        SAPC     C217     CTL2    -0.180000       12.0110           0
       897 MEMB     8        SAPC     H17R     HAL2     0.900000E-01   1.00800           0
       898 MEMB     8        SAPC     H17S     HAL2     0.900000E-01   1.00800           0
       899 MEMB     8        SAPC     C218     CTL2    -0.270000       12.0110           0
       900 MEMB     8        SAPC     H18R     HAL2     0.900000E-01   1.00800           0
       901 MEMB     8        SAPC     H18S     HAL2     0.900000E-01   1.00800           0
       902 MEMB     8        SAPC     C219     CTL2    -0.180000       12.0110           0
       903 MEMB     8        SAPC     H19R     HAL2     0.900000E-01   1.00800           0
       904 MEMB     8        SAPC     H19S     HAL2     0.900000E-01   1.00800           0
       905 MEMB     8        SAPC     C220     CTL3    -0.180000       12.0110           0
       906 MEMB     8        SAPC     H20R     HAL3     0.900000E-01   1.00800           0
       907 MEMB     8        SAPC     H20S     HAL3     0.900000E-01   1.00800           0
       908 MEMB     8        SAPC     H20T     HAL3     0.900000E-01   1.00800           0
       909 MEMB     8        SAPC     C33      CTL2    -0.180000       12.0110           0
       910 MEMB     8        SAPC     H3X      HAL2     0.900000E-01   1.00800           0
       911 MEMB     8        SAPC     H3Y      HAL2     0.900000E-01   1.00800           0
       912 MEMB     8        SAPC     C34      CTL2    -0.180000       12.0110           0
       913 MEMB     8        SAPC     H4X      HAL2     0.900000E-01   1.00800           0
       914 MEMB     8        SAPC     H4Y      HAL2     0.900000E-01   1.00800           0
       915 MEMB     8        SAPC     C35      CTL2    -0.180000       12.0110           0
       916 MEMB     8        SAPC     H5X      HAL2     0.900000E-01   1.00800           0
       917 MEMB     8        SAPC     H5Y      HAL2     0.900000E-01   1.00800           0
       918 MEMB     8        SAPC     C36      CTL2    -0.180000       12.0110           0
       919 MEMB     8        SAPC     H6X      HAL2     0.900000E-01   1.00800           0
       920 MEMB     8        SAPC     H6Y      HAL2     0.900000E-01   1.00800           0
       921 MEMB     8        SAPC     C37      CTL2    -0.180000       12.0110           0
       922 MEMB     8        SAPC     H7X      HAL2     0.900000E-01   1.00800           0
       923 MEMB     8        SAPC     H7Y      HAL2     0.900000E-01   1.00800           0
       924 MEMB     8        SAPC     C38      CTL2    -0.180000       12.0110           0
       925 MEMB     8        SAPC     H8X      HAL2     0.900000E-01   1.00800           0
       926 MEMB     8        SAPC     H8Y      HAL2     0.900000E-01   1.00800           0
       927 MEMB     8        SAPC     C39      CTL2    -0.180000       12.0110           0
       928 MEMB     8        SAPC     H9X      HAL2     0.900000E-01   1.00800           0
       929 MEMB     8        SAPC     H9Y      HAL2     0.900000E-01   1.00800           0
       930 MEMB     8        SAPC     C310     CTL2    -0.180000       12.0110           0
       931 MEMB     8        SAPC     H10X     HAL2     0.900000E-01   1.00800           0
       932 MEMB     8        SAPC     H10Y     HAL2     0.900000E-01   1.00800           0
       933 MEMB     8        SAPC     C311     CTL2    -0.180000       12.0110           0
       934 MEMB     8        SAPC     H11X     HAL2     0.900000E-01   1.00800           0
       935 MEMB     8        SAPC     H11Y     HAL2     0.900000E-01   1.00800           0
       936 MEMB     8        SAPC     C312     CTL2    -0.180000       12.0110           0
       937 MEMB     8        SAPC     H12X     HAL2     0.900000E-01   1.00800           0
       938 MEMB     8        SAPC     H12Y     HAL2     0.900000E-01   1.00800           0
       939 MEMB     8        SAPC     C313     CTL2    -0.180000       12.0110           0
       940 MEMB     8        SAPC     H13X     HAL2     0.900000E-01   1.00800           0
       941 MEMB     8        SAPC     H13Y     HAL2     0.900000E-01   1.00800           0
       942 MEMB     8        SAPC     C314     CTL2    -0.180000       12.0110           0
       943 MEMB     8        SAPC     H14X     HAL2     0.900000E-01   1.00800           0
       944 MEMB     8        SAPC     H14Y     HAL2     0.900000E-01   1.00800           0
       945 MEMB     8        SAPC     C315     CTL2    -0.180000       12.0110           0
       946 MEMB     8        SAPC     H15X     HAL2     0.900000E-01   1.00800           0
       947 MEMB     8        SAPC     H15Y     HAL2     0.900000E-01   1.00800           0
       948 MEMB     8        SAPC     C316     CTL2    -0.180000       12.0110           0
       949 MEMB     8        SAPC     H16X     HAL2     0.900000E-01   1.00800           0
       950 MEMB     8        SAPC     H16Y     HAL2     0.900000E-01   1.00800           0
       951 MEMB     8        SAPC     C317     CTL2    -0.180000       12.0110           0
       952 MEMB     8        SAPC     H17X     HAL2     0.900000E-01   1.00800           0
       953 MEMB     8        SAPC     H17Y     HAL2     0.900000E-01   1.00800           0
       954 MEMB     8        SAPC     C318     CTL3    -0.270000       12.0110           0
       955 MEMB     8        SAPC     H18X     HAL3     0.900000E-01   1.00800           0
       956 MEMB     8        SAPC     H18Y     HAL3     0.900000E-01   1.00800           0
       957 MEMB     8        SAPC     H18Z     HAL3     0.900000E-01   1.00800           0
       958 MEMB     9        CHL1     C3       CRL1     0.140000       12.0110           0
       959 MEMB     9        CHL1     H3       HGA1     0.900000E-01   1.00800           0
       960 MEMB     9        CHL1     O3       OHL     -0.660000       15.9994           0
       961 MEMB     9        CHL1     H3'      HOL      0.430000       1.00800           0
       962 MEMB     9        CHL1     C4       CRL2    -0.180000       12.0110           0
       963 MEMB     9        CHL1     H4A      HGA2     0.900000E-01   1.00800           0
       964 MEMB     9        CHL1     H4B      HGA2     0.900000E-01   1.00800           0
       965 MEMB     9        CHL1     C5       CEL1      0.00000       12.0110           0
       966 MEMB     9        CHL1     C6       CEL1    -0.150000       12.0110           0
       967 MEMB     9        CHL1     H6       HEL1     0.150000       1.00800           0
       968 MEMB     9        CHL1     C7       CRL2    -0.180000       12.0110           0
       969 MEMB     9        CHL1     H7A      HGA2     0.900000E-01   1.00800           0
       970 MEMB     9        CHL1     H7B      HGA2     0.900000E-01   1.00800           0
       971 MEMB     9        CHL1     C8       CRL1    -0.900000E-01   12.0110           0
       972 MEMB     9        CHL1     H8       HGA1     0.900000E-01   1.00800           0
       973 MEMB     9        CHL1     C14      CRL1    -0.900000E-01   12.0110           0
       974 MEMB     9        CHL1     H14      HGA1     0.900000E-01   1.00800           0
       975 MEMB     9        CHL1     C15      CRL2    -0.180000       12.0110           0
       976 MEMB     9        CHL1     H15A     HGA2     0.900000E-01   1.00800           0
       977 MEMB     9        CHL1     H15B     HGA2     0.900000E-01   1.00800           0
       978 MEMB     9        CHL1     C16      CRL2    -0.180000       12.0110           0
       979 MEMB     9        CHL1     H16A     HGA2     0.900000E-01   1.00800           0
       980 MEMB     9        CHL1     H16B     HGA2     0.900000E-01   1.00800           0
       981 MEMB     9        CHL1     C17      CRL1    -0.900000E-01   12.0110           0
       982 MEMB     9        CHL1     H17      HGA1     0.900000E-01   1.00800           0
       983 MEMB     9        CHL1     C13      CRL1      0.00000       12.0110           0
       984 MEMB     9        CHL1     C18      CTL3    -0.270000       12.0110           0
       985 MEMB     9        CHL1     H18A     HAL3     0.900000E-01   1.00800           0
       986 MEMB     9        CHL1     H18B     HAL3     0.900000E-01   1.00800           0
       987 MEMB     9        CHL1     H18C     HAL3     0.900000E-01   1.00800           0
       988 MEMB     9        CHL1     C12      CRL2    -0.180000       12.0110           0
       989 MEMB     9        CHL1     H12A     HGA2     0.900000E-01   1.00800           0
       990 MEMB     9        CHL1     H12B     HGA2     0.900000E-01   1.00800           0
       991 MEMB     9        CHL1     C11      CRL2    -0.180000       12.0110           0
       992 MEMB     9        CHL1     H11A     HGA2     0.900000E-01   1.00800           0
       993 MEMB     9        CHL1     H11B     HGA2     0.900000E-01   1.00800           0
       994 MEMB     9        CHL1     C9       CRL1    -0.900000E-01   12.0110           0
       995 MEMB     9        CHL1     H9       HGA1     0.900000E-01   1.00800           0
       996 MEMB     9        CHL1     C10      CRL1      0.00000       12.0110           0
       997 MEMB     9        CHL1     C19      CTL3    -0.270000       12.0110           0
       998 MEMB     9        CHL1     H19A     HAL3     0.900000E-01   1.00800           0
       999 MEMB     9        CHL1     H19B     HAL3     0.900000E-01   1.00800           0
      1000 MEMB     9        CHL1     H19C     HAL3     0.900000E-01   1.00800           0
      1001 MEMB     9        CHL1     C1       CRL2    -0.180000       12.0110           0
      1002 MEMB     9        CHL1     H1A      HGA2     0.900000E-01   1.00800           0
      1003 MEMB     9        CHL1     H1B      HGA2     0.900000E-01   1.00800           0
      1004 MEMB     9        CHL1     C2       CRL2    -0.180000       12.0110           0
      1005 MEMB     9        CHL1     H2A      HGA2     0.900000E-01   1.00800           0
      1006 MEMB     9        CHL1     H2B      HGA2     0.900000E-01   1.00800           0
      1007 MEMB     9        CHL1     C20      CTL1    -0.900000E-01   12.0110           0
      1008 MEMB     9        CHL1     H20      HAL1     0.900000E-01   1.00800           0
      1009 MEMB     9        CHL1     C21      CTL3    -0.270000       12.0110           0
      1010 MEMB     9        CHL1     H21A     HAL3     0.900000E-01   1.00800           0
      1011 MEMB     9        CHL1     H21B     HAL3     0.900000E-01   1.00800           0
      1012 MEMB     9        CHL1     H21C     HAL3     0.900000E-01   1.00800           0
      1013 MEMB     9        CHL1     C22      CTL2    -0.180000       12.0110           0
      1014 MEMB     9        CHL1     H22A     HAL2     0.900000E-01   1.00800           0
      1015 MEMB     9        CHL1     H22B     HAL2     0.900000E-01   1.00800           0
      1016 MEMB     9        CHL1     C23      CTL2    -0.180000       12.0110           0
      1017 MEMB     9        CHL1     H23A     HAL2     0.900000E-01   1.00800           0
      1018 MEMB     9        CHL1     H23B     HAL2     0.900000E-01   1.00800           0
      1019 MEMB     9        CHL1     C24      CTL2    -0.180000       12.0110           0
      1020 MEMB     9        CHL1     H24A     HAL2     0.900000E-01   1.00800           0
      1021 MEMB     9        CHL1     H24B     HAL2     0.900000E-01   1.00800           0
      1022 MEMB     9        CHL1     C25      CTL1    -0.900000E-01   12.0110           0
      1023 MEMB     9        CHL1     H25      HAL1     0.900000E-01   1.00800           0
      1024 MEMB     9        CHL1     C26      CTL3    -0.270000       12.0110           0
      1025 MEMB     9        CHL1     H26A     HAL3     0.900000E-01   1.00800           0
      1026 MEMB     9        CHL1     H26B     HAL3     0.900000E-01   1.00800           0
      1027 MEMB     9        CHL1     H26C     HAL3     0.900000E-01   1.00800           0
      1028 MEMB     9        CHL1     C27      CTL3    -0.270000       12.0110           0
      1029 MEMB     9        CHL1     H27A     HAL3     0.900000E-01   1.00800           0
      1030 MEMB     9        CHL1     H27B     HAL3     0.900000E-01   1.00800           0
      1031 MEMB     9        CHL1     H27C     HAL3     0.900000E-01   1.00800           0
      1032 MEMB     10       CHL1     C3       CRL1     0.140000       12.0110           0
      1033 MEMB     10       CHL1     H3       HGA1     0.900000E-01   1.00800           0
      1034 MEMB     10       CHL1     O3       OHL     -0.660000       15.9994           0
      1035 MEMB     10       CHL1     H3'      HOL      0.430000       1.00800           0
      1036 MEMB     10       CHL1     C4       CRL2    -0.180000       12.0110           0
      1037 MEMB     10       CHL1     H4A      HGA2     0.900000E-01   1.00800           0
      1038 MEMB     10       CHL1     H4B      HGA2     0.900000E-01   1.00800           0
      1039 MEMB     10       CHL1     C5       CEL1      0.00000       12.0110           0
      1040 MEMB     10       CHL1     C6       CEL1    -0.150000       12.0110           0
      1041 MEMB     10       CHL1     H6       HEL1     0.150000       1.00800           0
      1042 MEMB     10       CHL1     C7       CRL2    -0.180000       12.0110           0
      1043 MEMB     10       CHL1     H7A      HGA2     0.900000E-01   1.00800           0
      1044 MEMB     10       CHL1     H7B      HGA2     0.900000E-01   1.00800           0
      1045 MEMB     10       CHL1     C8       CRL1    -0.900000E-01   12.0110           0
      1046 MEMB     10       CHL1     H8       HGA1     0.900000E-01   1.00800           0
      1047 MEMB     10       CHL1     C14      CRL1    -0.900000E-01   12.0110           0
      1048 MEMB     10       CHL1     H14      HGA1     0.900000E-01   1.00800           0
      1049 MEMB     10       CHL1     C15      CRL2    -0.180000       12.0110           0
      1050 MEMB     10       CHL1     H15A     HGA2     0.900000E-01   1.00800           0
      1051 MEMB     10       CHL1     H15B     HGA2     0.900000E-01   1.00800           0
      1052 MEMB     10       CHL1     C16      CRL2    -0.180000       12.0110           0
      1053 MEMB     10       CHL1     H16A     HGA2     0.900000E-01   1.00800           0
      1054 MEMB     10       CHL1     H16B     HGA2     0.900000E-01   1.00800           0
      1055 MEMB     10       CHL1     C17      CRL1    -0.900000E-01   12.0110           0
      1056 MEMB     10       CHL1     H17      HGA1     0.900000E-01   1.00800           0
      1057 MEMB     10       CHL1     C13      CRL1      0.00000       12.0110           0
      1058 MEMB     10       CHL1     C18      CTL3    -0.270000       12.0110           0
      1059 MEMB     10       CHL1     H18A     HAL3     0.900000E-01   1.00800           0
      1060 MEMB     10       CHL1     H18B     HAL3     0.900000E-01   1.00800           0
      1061 MEMB     10       CHL1     H18C     HAL3     0.900000E-01   1.00800           0
      1062 MEMB     10       CHL1     C12      CRL2    -0.180000       12.0110           0
      1063 MEMB     10       CHL1     H12A     HGA2     0.900000E-01   1.00800           0
      1064 MEMB     10       CHL1     H12B     HGA2     0.900000E-01   1.00800           0
      1065 MEMB     10       CHL1     C11      CRL2    -0.180000       12.0110           0
      1066 MEMB     10       CHL1     H11A     HGA2     0.900000E-01   1.00800           0
      1067 MEMB     10       CHL1     H11B     HGA2     0.900000E-01   1.00800           0
      1068 MEMB     10       CHL1     C9       CRL1    -0.900000E-01   12.0110           0
      1069 MEMB     10       CHL1     H9       HGA1     0.900000E-01   1.00800           0
      1070 MEMB     10       CHL1     C10      CRL1      0.00000       12.0110           0
      1071 MEMB     10       CHL1     C19      CTL3    -0.270000       12.0110           0
      1072 MEMB     10       CHL1     H19A     HAL3     0.900000E-01   1.00800           0
      1073 MEMB     10       CHL1     H19B     HAL3     0.900000E-01   1.00800           0
      1074 MEMB     10       CHL1     H19C     HAL3     0.900000E-01   1.00800           0
      1075 MEMB     10       CHL1     C1       CRL2    -0.180000       12.0110           0
      1076 MEMB     10       CHL1     H1A      HGA2     0.900000E-01   1.00800           0
      1077 MEMB     10       CHL1     H1B      HGA2     0.900000E-01   1.00800           0
      1078 MEMB     10       CHL1     C2       CRL2    -0.180000       12.0110           0
      1079 MEMB     10       CHL1     H2A      HGA2     0.900000E-01   1.00800           0
      1080 MEMB     10       CHL1     H2B      HGA2     0.900000E-01   1.00800           0
      1081 MEMB     10       CHL1     C20      CTL1    -0.900000E-01   12.0110           0
      1082 MEMB     10       CHL1     H20      HAL1     0.900000E-01   1.00800           0
      1083 MEMB     10       CHL1     C21      CTL3    -0.270000       12.0110           0
      1084 MEMB     10       CHL1     H21A     HAL3     0.900000E-01   1.00800           0
      1085 MEMB     10       CHL1     H21B     HAL3     0.900000E-01   1.00800           0
      1086 MEMB     10       CHL1     H21C     HAL3     0.900000E-01   1.00800           0
      1087 MEMB     10       CHL1     C22      CTL2    -0.180000       12.0110           0
      1088 MEMB     10       CHL1     H22A     HAL2     0.900000E-01   1.00800           0
      1089 MEMB     10       CHL1     H22B     HAL2     0.900000E-01   1.00800           0
      1090 MEMB     10       CHL1     C23      CTL2    -0.180000       12.0110           0
      1091 MEMB     10       CHL1     H23A     HAL2     0.900000E-01   1.00800           0
      1092 MEMB     10       CHL1     H23B     HAL2     0.900000E-01   1.00800           0
      1093 MEMB     10       CHL1     C24      CTL2    -0.180000       12.0110           0
      1094 MEMB     10       CHL1     H24A     HAL2     0.900000E-01   1.00800           0
      1095 MEMB     10       CHL1     H24B     HAL2     0.900000E-01   1.00800           0
      1096 MEMB     10       CHL1     C25      CTL1    -0.900000E-01   12.0110           0
      1097 MEMB     10       CHL1     H25      HAL1     0.900000E-01   1.00800           0
      1098 MEMB     10       CHL1     C26      CTL3    -0.270000       12.0110           0
      1099 MEMB     10       CHL1     H26A     HAL3     0.900000E-01   1.00800           0
      1100 MEMB     10       CHL1     H26B     HAL3     0.900000E-01   1.00800           0
      1101 MEMB     10       CHL1     H26C     HAL3     0.900000E-01   1.00800           0
      1102 MEMB     10       CHL1     C27      CTL3    -0.270000       12.0110           0
      1103 MEMB     10       CHL1     H27A     HAL3     0.900000E-01   1.00800           0
      1104 MEMB     10       CHL1     H27B     HAL3     0.900000E-01   1.00800           0
      1105 MEMB     10       CHL1     H27C     HAL3     0.900000E-01   1.00800           0
      1106 MEMB     11       SOPE     N        NH3L    -0.300000       14.0070           0
      1107 MEMB     11       SOPE     HN1      HCL      0.330000       1.00800           0
      1108 MEMB     11       SOPE     HN2      HCL      0.330000       1.00800           0
      1109 MEMB     11       SOPE     HN3      HCL      0.330000       1.00800           0
      1110 MEMB     11       SOPE     C12      CTL2     0.130000       12.0110           0
      1111 MEMB     11       SOPE     H12A     HAL2     0.900000E-01   1.00800           0
      1112 MEMB     11       SOPE     H12B     HAL2     0.900000E-01   1.00800           0
      1113 MEMB     11       SOPE     C11      CTL2    -0.800000E-01   12.0110           0
      1114 MEMB     11       SOPE     H11A     HAL2     0.900000E-01   1.00800           0
      1115 MEMB     11       SOPE     H11B     HAL2     0.900000E-01   1.00800           0
      1116 MEMB     11       SOPE     P        PL        1.50000       30.9740           0
      1117 MEMB     11       SOPE     O13      O2L     -0.780000       15.9994           0
      1118 MEMB     11       SOPE     O14      O2L     -0.780000       15.9994           0
      1119 MEMB     11       SOPE     O12      OSLP    -0.570000       15.9994           0
      1120 MEMB     11       SOPE     O11      OSLP    -0.570000       15.9994           0
      1121 MEMB     11       SOPE     C1       CTL2    -0.800000E-01   12.0110           0
      1122 MEMB     11       SOPE     HA       HAL2     0.900000E-01   1.00800           0
      1123 MEMB     11       SOPE     HB       HAL2     0.900000E-01   1.00800           0
      1124 MEMB     11       SOPE     C2       CTL1     0.170000       12.0110           0
      1125 MEMB     11       SOPE     HS       HAL1     0.900000E-01   1.00800           0
      1126 MEMB     11       SOPE     O21      OSL     -0.490000       15.9994           0
      1127 MEMB     11       SOPE     C21      CL       0.900000       12.0110           0
      1128 MEMB     11       SOPE     O22      OBL     -0.630000       15.9994           0
      1129 MEMB     11       SOPE     C22      CTL2    -0.220000       12.0110           0
      1130 MEMB     11       SOPE     H2R      HAL2     0.900000E-01   1.00800           0
      1131 MEMB     11       SOPE     H2S      HAL2     0.900000E-01   1.00800           0
      1132 MEMB     11       SOPE     C3       CTL2     0.800000E-01   12.0110           0
      1133 MEMB     11       SOPE     HX       HAL2     0.900000E-01   1.00800           0
      1134 MEMB     11       SOPE     HY       HAL2     0.900000E-01   1.00800           0
      1135 MEMB     11       SOPE     O31      OSL     -0.490000       15.9994           0
      1136 MEMB     11       SOPE     C31      CL       0.900000       12.0110           0
      1137 MEMB     11       SOPE     O32      OBL     -0.630000       15.9994           0
      1138 MEMB     11       SOPE     C32      CTL2    -0.220000       12.0110           0
      1139 MEMB     11       SOPE     H2X      HAL2     0.900000E-01   1.00800           0
      1140 MEMB     11       SOPE     H2Y      HAL2     0.900000E-01   1.00800           0
      1141 MEMB     11       SOPE     C23      CTL2    -0.180000       12.0110           0
      1142 MEMB     11       SOPE     H3R      HAL2     0.900000E-01   1.00800           0
      1143 MEMB     11       SOPE     H3S      HAL2     0.900000E-01   1.00800           0
      1144 MEMB     11       SOPE     C24      CTL2    -0.180000       12.0110           0
      1145 MEMB     11       SOPE     H4R      HAL2     0.900000E-01   1.00800           0
      1146 MEMB     11       SOPE     H4S      HAL2     0.900000E-01   1.00800           0
      1147 MEMB     11       SOPE     C25      CTL2    -0.180000       12.0110           0
      1148 MEMB     11       SOPE     H5R      HAL2     0.900000E-01   1.00800           0
      1149 MEMB     11       SOPE     H5S      HAL2     0.900000E-01   1.00800           0
      1150 MEMB     11       SOPE     C26      CTL2    -0.180000       12.0110           0
      1151 MEMB     11       SOPE     H6R      HAL2     0.900000E-01   1.00800           0
      1152 MEMB     11       SOPE     H6S      HAL2     0.900000E-01   1.00800           0
      1153 MEMB     11       SOPE     C27      CTL2    -0.180000       12.0110           0
      1154 MEMB     11       SOPE     H7R      HAL2     0.900000E-01   1.00800           0
      1155 MEMB     11       SOPE     H7S      HAL2     0.900000E-01   1.00800           0
      1156 MEMB     11       SOPE     C28      CTL2    -0.180000       12.0110           0
      1157 MEMB     11       SOPE     H8R      HAL2     0.900000E-01   1.00800           0
      1158 MEMB     11       SOPE     H8S      HAL2     0.900000E-01   1.00800           0
      1159 MEMB     11       SOPE     C29      CEL1    -0.150000       12.0110           0
      1160 MEMB     11       SOPE     H91      HEL1     0.150000       1.00800           0
      1161 MEMB     11       SOPE     C210     CEL1    -0.150000       12.0110           0
      1162 MEMB     11       SOPE     H101     HEL1     0.150000       1.00800           0
      1163 MEMB     11       SOPE     C211     CTL2    -0.180000       12.0110           0
      1164 MEMB     11       SOPE     H11R     HAL2     0.900000E-01   1.00800           0
      1165 MEMB     11       SOPE     H11S     HAL2     0.900000E-01   1.00800           0
      1166 MEMB     11       SOPE     C212     CTL2    -0.180000       12.0110           0
      1167 MEMB     11       SOPE     H12R     HAL2     0.900000E-01   1.00800           0
      1168 MEMB     11       SOPE     H12S     HAL2     0.900000E-01   1.00800           0
      1169 MEMB     11       SOPE     C213     CTL2    -0.180000       12.0110           0
      1170 MEMB     11       SOPE     H13R     HAL2     0.900000E-01   1.00800           0
      1171 MEMB     11       SOPE     H13S     HAL2     0.900000E-01   1.00800           0
      1172 MEMB     11       SOPE     C214     CTL2    -0.180000       12.0110           0
      1173 MEMB     11       SOPE     H14R     HAL2     0.900000E-01   1.00800           0
      1174 MEMB     11       SOPE     H14S     HAL2     0.900000E-01   1.00800           0
      1175 MEMB     11       SOPE     C215     CTL2    -0.180000       12.0110           0
      1176 MEMB     11       SOPE     H15R     HAL2     0.900000E-01   1.00800           0
      1177 MEMB     11       SOPE     H15S     HAL2     0.900000E-01   1.00800           0
      1178 MEMB     11       SOPE     C216     CTL2    -0.180000       12.0110           0
      1179 MEMB     11       SOPE     H16R     HAL2     0.900000E-01   1.00800           0
      1180 MEMB     11       SOPE     H16S     HAL2     0.900000E-01   1.00800           0
      1181 MEMB     11       SOPE     C217     CTL2    -0.180000       12.0110           0
      1182 MEMB     11       SOPE     H17R     HAL2     0.900000E-01   1.00800           0
      1183 MEMB     11       SOPE     H17S     HAL2     0.900000E-01   1.00800           0
      1184 MEMB     11       SOPE     C218     CTL3    -0.270000       12.0110           0
      1185 MEMB     11       SOPE     H18R     HAL3     0.900000E-01   1.00800           0
      1186 MEMB     11       SOPE     H18S     HAL3     0.900000E-01   1.00800           0
      1187 MEMB     11       SOPE     H18T     HAL3     0.900000E-01   1.00800           0
      1188 MEMB     11       SOPE     C33      CTL2    -0.180000       12.0110           0
      1189 MEMB     11       SOPE     H3X      HAL2     0.900000E-01   1.00800           0
      1190 MEMB     11       SOPE     H3Y      HAL2     0.900000E-01   1.00800           0
      1191 MEMB     11       SOPE     C34      CTL2    -0.180000       12.0110           0
      1192 MEMB     11       SOPE     H4X      HAL2     0.900000E-01   1.00800           0
      1193 MEMB     11       SOPE     H4Y      HAL2     0.900000E-01   1.00800           0
      1194 MEMB     11       SOPE     C35      CTL2    -0.180000       12.0110           0
      1195 MEMB     11       SOPE     H5X      HAL2     0.900000E-01   1.00800           0
      1196 MEMB     11       SOPE     H5Y      HAL2     0.900000E-01   1.00800           0
      1197 MEMB     11       SOPE     C36      CTL2    -0.180000       12.0110           0
      1198 MEMB     11       SOPE     H6X      HAL2     0.900000E-01   1.00800           0
      1199 MEMB     11       SOPE     H6Y      HAL2     0.900000E-01   1.00800           0
      1200 MEMB     11       SOPE     C37      CTL2    -0.180000       12.0110           0
      1201 MEMB     11       SOPE     H7X      HAL2     0.900000E-01   1.00800           0
      1202 MEMB     11       SOPE     H7Y      HAL2     0.900000E-01   1.00800           0
      1203 MEMB     11       SOPE     C38      CTL2    -0.180000       12.0110           0
      1204 MEMB     11       SOPE     H8X      HAL2     0.900000E-01   1.00800           0
      1205 MEMB     11       SOPE     H8Y      HAL2     0.900000E-01   1.00800           0
      1206 MEMB     11       SOPE     C39      CTL2    -0.180000       12.0110           0
      1207 MEMB     11       SOPE     H9X      HAL2     0.900000E-01   1.00800           0
      1208 MEMB     11       SOPE     H9Y      HAL2     0.900000E-01   1.00800           0
      1209 MEMB     11       SOPE     C310     CTL2    -0.180000       12.0110           0
      1210 MEMB     11       SOPE     H10X     HAL2     0.900000E-01   1.00800           0
      1211 MEMB     11       SOPE     H10Y     HAL2     0.900000E-01   1.00800           0
      1212 MEMB     11       SOPE     C311     CTL2    -0.180000       12.0110           0
      1213 MEMB     11       SOPE     H11X     HAL2     0.900000E-01   1.00800           0
      1214 MEMB     11       SOPE     H11Y     HAL2     0.900000E-01   1.00800           0
      1215 MEMB     11       SOPE     C312     CTL2    -0.180000       12.0110           0
      1216 MEMB     11       SOPE     H12X     HAL2     0.900000E-01   1.00800           0
      1217 MEMB     11       SOPE     H12Y     HAL2     0.900000E-01   1.00800           0
      1218 MEMB     11       SOPE     C313     CTL2    -0.180000       12.0110           0
      1219 MEMB     11       SOPE     H13X     HAL2     0.900000E-01   1.00800           0
      1220 MEMB     11       SOPE     H13Y     HAL2     0.900000E-01   1.00800           0
      1221 MEMB     11       SOPE     C314     CTL2    -0.180000       12.0110           0
      1222 MEMB     11       SOPE     H14X     HAL2     0.900000E-01   1.00800           0
      1223 MEMB     11       SOPE     H14Y     HAL2     0.900000E-01   1.00800           0
      1224 MEMB     11       SOPE     C315     CTL2    -0.180000       12.0110           0
      1225 MEMB     11       SOPE     H15X     HAL2     0.900000E-01   1.00800           0
      1226 MEMB     11       SOPE     H15Y     HAL2     0.900000E-01   1.00800           0
      1227 MEMB     11       SOPE     C316     CTL2    -0.180000       12.0110           0
      1228 MEMB     11       SOPE     H16X     HAL2     0.900000E-01   1.00800           0
      1229 MEMB     11       SOPE     H16Y     HAL2     0.900000E-01   1.00800           0
      1230 MEMB     11       SOPE     C317     CTL2    -0.180000       12.0110           0
      1231 MEMB     11       SOPE     H17X     HAL2     0.900000E-01   1.00800           0
      1232 MEMB     11       SOPE     H17Y     HAL2     0.900000E-01   1.00800           0
      1233 MEMB     11       SOPE     C318     CTL3    -0.270000       12.0110           0
      1234 MEMB     11       SOPE     H18X     HAL3     0.900000E-01   1.00800           0
      1235 MEMB     11       SOPE     H18Y     HAL3     0.900000E-01   1.00800           0
      1236 MEMB     11       SOPE     H18Z     HAL3     0.900000E-01   1.00800           0
      1237 MEMB     12       OSM      N        NTL     -0.600000       14.0070           0
      1238 MEMB     12       OSM      C15      CTL5    -0.350000       12.0110           0
      1239 MEMB     12       OSM      H15A     HL       0.250000       1.00800           0
      1240 MEMB     12       OSM      H15B     HL       0.250000       1.00800           0
      1241 MEMB     12       OSM      H15C     HL       0.250000       1.00800           0
      1242 MEMB     12       OSM      C14      CTL5    -0.350000       12.0110           0
      1243 MEMB     12       OSM      H14A     HL       0.250000       1.00800           0
      1244 MEMB     12       OSM      H14B     HL       0.250000       1.00800           0
      1245 MEMB     12       OSM      H14C     HL       0.250000       1.00800           0
      1246 MEMB     12       OSM      C13      CTL5    -0.350000       12.0110           0
      1247 MEMB     12       OSM      H13A     HL       0.250000       1.00800           0
      1248 MEMB     12       OSM      H13B     HL       0.250000       1.00800           0
      1249 MEMB     12       OSM      H13C     HL       0.250000       1.00800           0
      1250 MEMB     12       OSM      C12      CTL2    -0.100000       12.0110           0
      1251 MEMB     12       OSM      H12A     HL       0.250000       1.00800           0
      1252 MEMB     12       OSM      H12B     HL       0.250000       1.00800           0
      1253 MEMB     12       OSM      C11      CTL2    -0.800000E-01   12.0110           0
      1254 MEMB     12       OSM      H11A     HAL2     0.900000E-01   1.00800           0
      1255 MEMB     12       OSM      H11B     HAL2     0.900000E-01   1.00800           0
      1256 MEMB     12       OSM      P        PL        1.50000       30.9740           0
      1257 MEMB     12       OSM      O13      O2L     -0.780000       15.9994           0
      1258 MEMB     12       OSM      O14      O2L     -0.780000       15.9994           0
      1259 MEMB     12       OSM      O11      OSLP    -0.570000       15.9994           0
      1260 MEMB     12       OSM      O12      OSLP    -0.570000       15.9994           0
      1261 MEMB     12       OSM      C1S      CTL2    -0.800000E-01   12.0110           0
      1262 MEMB     12       OSM      H1S      HAL2     0.900000E-01   1.00800           0
      1263 MEMB     12       OSM      H1T      HAL2     0.900000E-01   1.00800           0
      1264 MEMB     12       OSM      NF       NHL     -0.700000       14.0070           0
      1265 MEMB     12       OSM      HNF      H        0.350000       1.00800           0
      1266 MEMB     12       OSM      C2S      CTL1     0.300000       12.0110           0
      1267 MEMB     12       OSM      H2S      HAL1     0.500000E-01   1.00800           0
      1268 MEMB     12       OSM      C3S      CTO1     0.500000       12.0110           0
      1269 MEMB     12       OSM      H3S      HAL1    -0.110000       1.00800           0
      1270 MEMB     12       OSM      O3       OHL     -0.690000       15.9994           0
      1271 MEMB     12       OSM      HO3      HOL      0.300000       1.00800           0
      1272 MEMB     12       OSM      C4S      CEL3    -0.150000       12.0110           0
      1273 MEMB     12       OSM      H4S      HEL1     0.150000       1.00800           0
      1274 MEMB     12       OSM      C5S      CEL3    -0.150000       12.0110           0
      1275 MEMB     12       OSM      H5S      HEL1     0.150000       1.00800           0
      1276 MEMB     12       OSM      C6S      CTL2    -0.180000       12.0110           0
      1277 MEMB     12       OSM      H6S      HAL2     0.900000E-01   1.00800           0
      1278 MEMB     12       OSM      H6T      HAL2     0.900000E-01   1.00800           0
      1279 MEMB     12       OSM      C7S      CTL2    -0.180000       12.0110           0
      1280 MEMB     12       OSM      H7S      HAL2     0.900000E-01   1.00800           0
      1281 MEMB     12       OSM      H7T      HAL2     0.900000E-01   1.00800           0
      1282 MEMB     12       OSM      C8S      CTL2    -0.180000       12.0110           0
      1283 MEMB     12       OSM      H8S      HAL2     0.900000E-01   1.00800           0
      1284 MEMB     12       OSM      H8T      HAL2     0.900000E-01   1.00800           0
      1285 MEMB     12       OSM      C9S      CTL2    -0.180000       12.0110           0
      1286 MEMB     12       OSM      H9S      HAL2     0.900000E-01   1.00800           0
      1287 MEMB     12       OSM      H9T      HAL2     0.900000E-01   1.00800           0
      1288 MEMB     12       OSM      C10S     CTL2    -0.180000       12.0110           0
      1289 MEMB     12       OSM      H10S     HAL2     0.900000E-01   1.00800           0
      1290 MEMB     12       OSM      H10T     HAL2     0.900000E-01   1.00800           0
      1291 MEMB     12       OSM      C11S     CTL2    -0.180000       12.0110           0
      1292 MEMB     12       OSM      H11S     HAL2     0.900000E-01   1.00800           0
      1293 MEMB     12       OSM      H11T     HAL2     0.900000E-01   1.00800           0
      1294 MEMB     12       OSM      C12S     CTL2    -0.180000       12.0110           0
      1295 MEMB     12       OSM      H12S     HAL2     0.900000E-01   1.00800           0
      1296 MEMB     12       OSM      H12T     HAL2     0.900000E-01   1.00800           0
      1297 MEMB     12       OSM      C13S     CTL2    -0.180000       12.0110           0
      1298 MEMB     12       OSM      H13S     HAL2     0.900000E-01   1.00800           0
      1299 MEMB     12       OSM      H13T     HAL2     0.900000E-01   1.00800           0
      1300 MEMB     12       OSM      C14S     CTL2    -0.180000       12.0110           0
      1301 MEMB     12       OSM      H14S     HAL2     0.900000E-01   1.00800           0
      1302 MEMB     12       OSM      H14T     HAL2     0.900000E-01   1.00800           0
      1303 MEMB     12       OSM      C15S     CTL2    -0.180000       12.0110           0
      1304 MEMB     12       OSM      H15S     HAL2     0.900000E-01   1.00800           0
      1305 MEMB     12       OSM      H15T     HAL2     0.900000E-01   1.00800           0
      1306 MEMB     12       OSM      C16S     CTL2    -0.180000       12.0110           0
      1307 MEMB     12       OSM      H16S     HAL2     0.900000E-01   1.00800           0
      1308 MEMB     12       OSM      H16T     HAL2     0.900000E-01   1.00800           0
      1309 MEMB     12       OSM      C17S     CTL2    -0.180000       12.0110           0
      1310 MEMB     12       OSM      H17S     HAL2     0.900000E-01   1.00800           0
      1311 MEMB     12       OSM      H17T     HAL2     0.900000E-01   1.00800           0
      1312 MEMB     12       OSM      C18S     CTL3    -0.270000       12.0110           0
      1313 MEMB     12       OSM      H18S     HAL3     0.900000E-01   1.00800           0
      1314 MEMB     12       OSM      H18T     HAL3     0.900000E-01   1.00800           0
      1315 MEMB     12       OSM      H18U     HAL3     0.900000E-01   1.00800           0
      1316 MEMB     12       OSM      C1F      C        0.550000       12.0110           0
      1317 MEMB     12       OSM      OF       O       -0.600000       15.9994           0
      1318 MEMB     12       OSM      C2F      CTL2    -0.700000E-01   12.0110           0
      1319 MEMB     12       OSM      H2F      HAL2     0.600000E-01   1.00800           0
      1320 MEMB     12       OSM      H2G      HAL2     0.600000E-01   1.00800           0
      1321 MEMB     12       OSM      C3F      CTL2    -0.180000       12.0110           0
      1322 MEMB     12       OSM      H3F      HAL2     0.900000E-01   1.00800           0
      1323 MEMB     12       OSM      H3G      HAL2     0.900000E-01   1.00800           0
      1324 MEMB     12       OSM      C4F      CTL2    -0.180000       12.0110           0
      1325 MEMB     12       OSM      H4F      HAL2     0.900000E-01   1.00800           0
      1326 MEMB     12       OSM      H4G      HAL2     0.900000E-01   1.00800           0
      1327 MEMB     12       OSM      C5F      CTL2    -0.180000       12.0110           0
      1328 MEMB     12       OSM      H5F      HAL2     0.900000E-01   1.00800           0
      1329 MEMB     12       OSM      H5G      HAL2     0.900000E-01   1.00800           0
      1330 MEMB     12       OSM      C6F      CTL2    -0.180000       12.0110           0
      1331 MEMB     12       OSM      H6F      HAL2     0.900000E-01   1.00800           0
      1332 MEMB     12       OSM      H6G      HAL2     0.900000E-01   1.00800           0
      1333 MEMB     12       OSM      C7F      CTL2    -0.180000       12.0110           0
      1334 MEMB     12       OSM      H7F      HAL2     0.900000E-01   1.00800           0
      1335 MEMB     12       OSM      H7G      HAL2     0.900000E-01   1.00800           0
      1336 MEMB     12       OSM      C8F      CTL2    -0.180000       12.0110           0
      1337 MEMB     12       OSM      H8F      HAL2     0.900000E-01   1.00800           0
      1338 MEMB     12       OSM      H8G      HAL2     0.900000E-01   1.00800           0
      1339 MEMB     12       OSM      C9F      CEL1    -0.150000       12.0110           0
      1340 MEMB     12       OSM      H9F      HEL1     0.150000       1.00800           0
      1341 MEMB     12       OSM      C10F     CEL1    -0.150000       12.0110           0
      1342 MEMB     12       OSM      H10F     HEL1     0.150000       1.00800           0
      1343 MEMB     12       OSM      C11F     CTL2    -0.180000       12.0110           0
      1344 MEMB     12       OSM      H11F     HAL2     0.900000E-01   1.00800           0
      1345 MEMB     12       OSM      H11G     HAL2     0.900000E-01   1.00800           0
      1346 MEMB     12       OSM      C12F     CTL2    -0.180000       12.0110           0
      1347 MEMB     12       OSM      H12F     HAL2     0.900000E-01   1.00800           0
      1348 MEMB     12       OSM      H12G     HAL2     0.900000E-01   1.00800           0
      1349 MEMB     12       OSM      C13F     CTL2    -0.180000       12.0110           0
      1350 MEMB     12       OSM      H13F     HAL2     0.900000E-01   1.00800           0
      1351 MEMB     12       OSM      H13G     HAL2     0.900000E-01   1.00800           0
      1352 MEMB     12       OSM      C14F     CTL2    -0.180000       12.0110           0
      1353 MEMB     12       OSM      H14F     HAL2     0.900000E-01   1.00800           0
      1354 MEMB     12       OSM      H14G     HAL2     0.900000E-01   1.00800           0
      1355 MEMB     12       OSM      C15F     CTL2    -0.180000       12.0110           0
      1356 MEMB     12       OSM      H15F     HAL2     0.900000E-01   1.00800           0
      1357 MEMB     12       OSM      H15G     HAL2     0.900000E-01   1.00800           0
      1358 MEMB     12       OSM      C16F     CTL2    -0.180000       12.0110           0
      1359 MEMB     12       OSM      H16F     HAL2     0.900000E-01   1.00800           0
      1360 MEMB     12       OSM      H16G     HAL2     0.900000E-01   1.00800           0
      1361 MEMB     12       OSM      C17F     CTL2    -0.180000       12.0110           0
      1362 MEMB     12       OSM      H17F     HAL2     0.900000E-01   1.00800           0
      1363 MEMB     12       OSM      H17G     HAL2     0.900000E-01   1.00800           0
      1364 MEMB     12       OSM      C18F     CTL3    -0.270000       12.0110           0
      1365 MEMB     12       OSM      H18F     HAL3     0.900000E-01   1.00800           0
      1366 MEMB     12       OSM      H18G     HAL3     0.900000E-01   1.00800           0
      1367 MEMB     12       OSM      H18H     HAL3     0.900000E-01   1.00800           0
      1368 MEMB     13       POPC     N        NTL     -0.600000       14.0070           0
      1369 MEMB     13       POPC     C12      CTL2    -0.100000       12.0110           0
      1370 MEMB     13       POPC     H12A     HL       0.250000       1.00800           0
      1371 MEMB     13       POPC     H12B     HL       0.250000       1.00800           0
      1372 MEMB     13       POPC     C13      CTL5    -0.350000       12.0110           0
      1373 MEMB     13       POPC     H13A     HL       0.250000       1.00800           0
      1374 MEMB     13       POPC     H13B     HL       0.250000       1.00800           0
      1375 MEMB     13       POPC     H13C     HL       0.250000       1.00800           0
      1376 MEMB     13       POPC     C14      CTL5    -0.350000       12.0110           0
      1377 MEMB     13       POPC     H14A     HL       0.250000       1.00800           0
      1378 MEMB     13       POPC     H14B     HL       0.250000       1.00800           0
      1379 MEMB     13       POPC     H14C     HL       0.250000       1.00800           0
      1380 MEMB     13       POPC     C15      CTL5    -0.350000       12.0110           0
      1381 MEMB     13       POPC     H15A     HL       0.250000       1.00800           0
      1382 MEMB     13       POPC     H15B     HL       0.250000       1.00800           0
      1383 MEMB     13       POPC     H15C     HL       0.250000       1.00800           0
      1384 MEMB     13       POPC     C11      CTL2    -0.800000E-01   12.0110           0
      1385 MEMB     13       POPC     H11A     HAL2     0.900000E-01   1.00800           0
      1386 MEMB     13       POPC     H11B     HAL2     0.900000E-01   1.00800           0
      1387 MEMB     13       POPC     P        PL        1.50000       30.9740           0
      1388 MEMB     13       POPC     O13      O2L     -0.780000       15.9994           0
      1389 MEMB     13       POPC     O14      O2L     -0.780000       15.9994           0
      1390 MEMB     13       POPC     O12      OSLP    -0.570000       15.9994           0
      1391 MEMB     13       POPC     O11      OSLP    -0.570000       15.9994           0
      1392 MEMB     13       POPC     C1       CTL2    -0.800000E-01   12.0110           0
      1393 MEMB     13       POPC     HA       HAL2     0.900000E-01   1.00800           0
      1394 MEMB     13       POPC     HB       HAL2     0.900000E-01   1.00800           0
      1395 MEMB     13       POPC     C2       CTL1     0.170000       12.0110           0
      1396 MEMB     13       POPC     HS       HAL1     0.900000E-01   1.00800           0
      1397 MEMB     13       POPC     O21      OSL     -0.490000       15.9994           0
      1398 MEMB     13       POPC     C21      CL       0.900000       12.0110           0
      1399 MEMB     13       POPC     O22      OBL     -0.630000       15.9994           0
      1400 MEMB     13       POPC     C22      CTL2    -0.220000       12.0110           0
      1401 MEMB     13       POPC     H2R      HAL2     0.900000E-01   1.00800           0
      1402 MEMB     13       POPC     H2S      HAL2     0.900000E-01   1.00800           0
      1403 MEMB     13       POPC     C3       CTL2     0.800000E-01   12.0110           0
      1404 MEMB     13       POPC     HX       HAL2     0.900000E-01   1.00800           0
      1405 MEMB     13       POPC     HY       HAL2     0.900000E-01   1.00800           0
      1406 MEMB     13       POPC     O31      OSL     -0.490000       15.9994           0
      1407 MEMB     13       POPC     C31      CL       0.900000       12.0110           0
      1408 MEMB     13       POPC     O32      OBL     -0.630000       15.9994           0
      1409 MEMB     13       POPC     C32      CTL2    -0.220000       12.0110           0
      1410 MEMB     13       POPC     H2X      HAL2     0.900000E-01   1.00800           0
      1411 MEMB     13       POPC     H2Y      HAL2     0.900000E-01   1.00800           0
      1412 MEMB     13       POPC     C23      CTL2    -0.180000       12.0110           0
      1413 MEMB     13       POPC     H3R      HAL2     0.900000E-01   1.00800           0
      1414 MEMB     13       POPC     H3S      HAL2     0.900000E-01   1.00800           0
      1415 MEMB     13       POPC     C24      CTL2    -0.180000       12.0110           0
      1416 MEMB     13       POPC     H4R      HAL2     0.900000E-01   1.00800           0
      1417 MEMB     13       POPC     H4S      HAL2     0.900000E-01   1.00800           0
      1418 MEMB     13       POPC     C25      CTL2    -0.180000       12.0110           0
      1419 MEMB     13       POPC     H5R      HAL2     0.900000E-01   1.00800           0
      1420 MEMB     13       POPC     H5S      HAL2     0.900000E-01   1.00800           0
      1421 MEMB     13       POPC     C26      CTL2    -0.180000       12.0110           0
      1422 MEMB     13       POPC     H6R      HAL2     0.900000E-01   1.00800           0
      1423 MEMB     13       POPC     H6S      HAL2     0.900000E-01   1.00800           0
      1424 MEMB     13       POPC     C27      CTL2    -0.180000       12.0110           0
      1425 MEMB     13       POPC     H7R      HAL2     0.900000E-01   1.00800           0
      1426 MEMB     13       POPC     H7S      HAL2     0.900000E-01   1.00800           0
      1427 MEMB     13       POPC     C28      CTL2    -0.180000       12.0110           0
      1428 MEMB     13       POPC     H8R      HAL2     0.900000E-01   1.00800           0
      1429 MEMB     13       POPC     H8S      HAL2     0.900000E-01   1.00800           0
      1430 MEMB     13       POPC     C29      CEL1    -0.150000       12.0110           0
      1431 MEMB     13       POPC     H91      HEL1     0.150000       1.00800           0
      1432 MEMB     13       POPC     C210     CEL1    -0.150000       12.0110           0
      1433 MEMB     13       POPC     H101     HEL1     0.150000       1.00800           0
      1434 MEMB     13       POPC     C211     CTL2    -0.180000       12.0110           0
      1435 MEMB     13       POPC     H11R     HAL2     0.900000E-01   1.00800           0
      1436 MEMB     13       POPC     H11S     HAL2     0.900000E-01   1.00800           0
      1437 MEMB     13       POPC     C212     CTL2    -0.180000       12.0110           0
      1438 MEMB     13       POPC     H12R     HAL2     0.900000E-01   1.00800           0
      1439 MEMB     13       POPC     H12S     HAL2     0.900000E-01   1.00800           0
      1440 MEMB     13       POPC     C213     CTL2    -0.180000       12.0110           0
      1441 MEMB     13       POPC     H13R     HAL2     0.900000E-01   1.00800           0
      1442 MEMB     13       POPC     H13S     HAL2     0.900000E-01   1.00800           0
      1443 MEMB     13       POPC     C214     CTL2    -0.180000       12.0110           0
      1444 MEMB     13       POPC     H14R     HAL2     0.900000E-01   1.00800           0
      1445 MEMB     13       POPC     H14S     HAL2     0.900000E-01   1.00800           0
      1446 MEMB     13       POPC     C215     CTL2    -0.180000       12.0110           0
      1447 MEMB     13       POPC     H15R     HAL2     0.900000E-01   1.00800           0
      1448 MEMB     13       POPC     H15S     HAL2     0.900000E-01   1.00800           0
      1449 MEMB     13       POPC     C216     CTL2    -0.180000       12.0110           0
      1450 MEMB     13       POPC     H16R     HAL2     0.900000E-01   1.00800           0
      1451 MEMB     13       POPC     H16S     HAL2     0.900000E-01   1.00800           0
      1452 MEMB     13       POPC     C217     CTL2    -0.180000       12.0110           0
      1453 MEMB     13       POPC     H17R     HAL2     0.900000E-01   1.00800           0
      1454 MEMB     13       POPC     H17S     HAL2     0.900000E-01   1.00800           0
      1455 MEMB     13       POPC     C218     CTL3    -0.270000       12.0110           0
      1456 MEMB     13       POPC     H18R     HAL3     0.900000E-01   1.00800           0
      1457 MEMB     13       POPC     H18S     HAL3     0.900000E-01   1.00800           0
      1458 MEMB     13       POPC     H18T     HAL3     0.900000E-01   1.00800           0
      1459 MEMB     13       POPC     C33      CTL2    -0.180000       12.0110           0
      1460 MEMB     13       POPC     H3X      HAL2     0.900000E-01   1.00800           0
      1461 MEMB     13       POPC     H3Y      HAL2     0.900000E-01   1.00800           0
      1462 MEMB     13       POPC     C34      CTL2    -0.180000       12.0110           0
      1463 MEMB     13       POPC     H4X      HAL2     0.900000E-01   1.00800           0
      1464 MEMB     13       POPC     H4Y      HAL2     0.900000E-01   1.00800           0
      1465 MEMB     13       POPC     C35      CTL2    -0.180000       12.0110           0
      1466 MEMB     13       POPC     H5X      HAL2     0.900000E-01   1.00800           0
      1467 MEMB     13       POPC     H5Y      HAL2     0.900000E-01   1.00800           0
      1468 MEMB     13       POPC     C36      CTL2    -0.180000       12.0110           0
      1469 MEMB     13       POPC     H6X      HAL2     0.900000E-01   1.00800           0
      1470 MEMB     13       POPC     H6Y      HAL2     0.900000E-01   1.00800           0
      1471 MEMB     13       POPC     C37      CTL2    -0.180000       12.0110           0
      1472 MEMB     13       POPC     H7X      HAL2     0.900000E-01   1.00800           0
      1473 MEMB     13       POPC     H7Y      HAL2     0.900000E-01   1.00800           0
      1474 MEMB     13       POPC     C38      CTL2    -0.180000       12.0110           0
      1475 MEMB     13       POPC     H8X      HAL2     0.900000E-01   1.00800           0
      1476 MEMB     13       POPC     H8Y      HAL2     0.900000E-01   1.00800           0
      1477 MEMB     13       POPC     C39      CTL2    -0.180000       12.0110           0
      1478 MEMB     13       POPC     H9X      HAL2     0.900000E-01   1.00800           0
      1479 MEMB     13       POPC     H9Y      HAL2     0.900000E-01   1.00800           0
      1480 MEMB     13       POPC     C310     CTL2    -0.180000       12.0110           0
      1481 MEMB     13       POPC     H10X     HAL2     0.900000E-01   1.00800           0
      1482 MEMB     13       POPC     H10Y     HAL2     0.900000E-01   1.00800           0
      1483 MEMB     13       POPC     C311     CTL2    -0.180000       12.0110           0
      1484 MEMB     13       POPC     H11X     HAL2     0.900000E-01   1.00800           0
      1485 MEMB     13       POPC     H11Y     HAL2     0.900000E-01   1.00800           0
      1486 MEMB     13       POPC     C312     CTL2    -0.180000       12.0110           0
      1487 MEMB     13       POPC     H12X     HAL2     0.900000E-01   1.00800           0
      1488 MEMB     13       POPC     H12Y     HAL2     0.900000E-01   1.00800           0
      1489 MEMB     13       POPC     C313     CTL2    -0.180000       12.0110           0
      1490 MEMB     13       POPC     H13X     HAL2     0.900000E-01   1.00800           0
      1491 MEMB     13       POPC     H13Y     HAL2     0.900000E-01   1.00800           0
      1492 MEMB     13       POPC     C314     CTL2    -0.180000       12.0110           0
      1493 MEMB     13       POPC     H14X     HAL2     0.900000E-01   1.00800           0
      1494 MEMB     13       POPC     H14Y     HAL2     0.900000E-01   1.00800           0
      1495 MEMB     13       POPC     C315     CTL2    -0.180000       12.0110           0
      1496 MEMB     13       POPC     H15X     HAL2     0.900000E-01   1.00800           0
      1497 MEMB     13       POPC     H15Y     HAL2     0.900000E-01   1.00800           0
      1498 MEMB     13       POPC     C316     CTL3    -0.270000       12.0110           0
      1499 MEMB     13       POPC     H16X     HAL3     0.900000E-01   1.00800           0
      1500 MEMB     13       POPC     H16Y     HAL3     0.900000E-01   1.00800           0
      1501 MEMB     13       POPC     H16Z     HAL3     0.900000E-01   1.00800           0
      1502 MEMB     14       CHL1     C3       CRL1     0.140000       12.0110           0
      1503 MEMB     14       CHL1     H3       HGA1     0.900000E-01   1.00800           0
      1504 MEMB     14       CHL1     O3       OHL     -0.660000       15.9994           0
      1505 MEMB     14       CHL1     H3'      HOL      0.430000       1.00800           0
      1506 MEMB     14       CHL1     C4       CRL2    -0.180000       12.0110           0
      1507 MEMB     14       CHL1     H4A      HGA2     0.900000E-01   1.00800           0
      1508 MEMB     14       CHL1     H4B      HGA2     0.900000E-01   1.00800           0
      1509 MEMB     14       CHL1     C5       CEL1      0.00000       12.0110           0
      1510 MEMB     14       CHL1     C6       CEL1    -0.150000       12.0110           0
      1511 MEMB     14       CHL1     H6       HEL1     0.150000       1.00800           0
      1512 MEMB     14       CHL1     C7       CRL2    -0.180000       12.0110           0
      1513 MEMB     14       CHL1     H7A      HGA2     0.900000E-01   1.00800           0
      1514 MEMB     14       CHL1     H7B      HGA2     0.900000E-01   1.00800           0
      1515 MEMB     14       CHL1     C8       CRL1    -0.900000E-01   12.0110           0
      1516 MEMB     14       CHL1     H8       HGA1     0.900000E-01   1.00800           0
      1517 MEMB     14       CHL1     C14      CRL1    -0.900000E-01   12.0110           0
      1518 MEMB     14       CHL1     H14      HGA1     0.900000E-01   1.00800           0
      1519 MEMB     14       CHL1     C15      CRL2    -0.180000       12.0110           0
      1520 MEMB     14       CHL1     H15A     HGA2     0.900000E-01   1.00800           0
      1521 MEMB     14       CHL1     H15B     HGA2     0.900000E-01   1.00800           0
      1522 MEMB     14       CHL1     C16      CRL2    -0.180000       12.0110           0
      1523 MEMB     14       CHL1     H16A     HGA2     0.900000E-01   1.00800           0
      1524 MEMB     14       CHL1     H16B     HGA2     0.900000E-01   1.00800           0
      1525 MEMB     14       CHL1     C17      CRL1    -0.900000E-01   12.0110           0
      1526 MEMB     14       CHL1     H17      HGA1     0.900000E-01   1.00800           0
      1527 MEMB     14       CHL1     C13      CRL1      0.00000       12.0110           0
      1528 MEMB     14       CHL1     C18      CTL3    -0.270000       12.0110           0
      1529 MEMB     14       CHL1     H18A     HAL3     0.900000E-01   1.00800           0
      1530 MEMB     14       CHL1     H18B     HAL3     0.900000E-01   1.00800           0
      1531 MEMB     14       CHL1     H18C     HAL3     0.900000E-01   1.00800           0
      1532 MEMB     14       CHL1     C12      CRL2    -0.180000       12.0110           0
      1533 MEMB     14       CHL1     H12A     HGA2     0.900000E-01   1.00800           0
      1534 MEMB     14       CHL1     H12B     HGA2     0.900000E-01   1.00800           0
      1535 MEMB     14       CHL1     C11      CRL2    -0.180000       12.0110           0
      1536 MEMB     14       CHL1     H11A     HGA2     0.900000E-01   1.00800           0
      1537 MEMB     14       CHL1     H11B     HGA2     0.900000E-01   1.00800           0
      1538 MEMB     14       CHL1     C9       CRL1    -0.900000E-01   12.0110           0
      1539 MEMB     14       CHL1     H9       HGA1     0.900000E-01   1.00800           0
      1540 MEMB     14       CHL1     C10      CRL1      0.00000       12.0110           0
      1541 MEMB     14       CHL1     C19      CTL3    -0.270000       12.0110           0
      1542 MEMB     14       CHL1     H19A     HAL3     0.900000E-01   1.00800           0
      1543 MEMB     14       CHL1     H19B     HAL3     0.900000E-01   1.00800           0
      1544 MEMB     14       CHL1     H19C     HAL3     0.900000E-01   1.00800           0
      1545 MEMB     14       CHL1     C1       CRL2    -0.180000       12.0110           0
      1546 MEMB     14       CHL1     H1A      HGA2     0.900000E-01   1.00800           0
      1547 MEMB     14       CHL1     H1B      HGA2     0.900000E-01   1.00800           0
      1548 MEMB     14       CHL1     C2       CRL2    -0.180000       12.0110           0
      1549 MEMB     14       CHL1     H2A      HGA2     0.900000E-01   1.00800           0
      1550 MEMB     14       CHL1     H2B      HGA2     0.900000E-01   1.00800           0
      1551 MEMB     14       CHL1     C20      CTL1    -0.900000E-01   12.0110           0
      1552 MEMB     14       CHL1     H20      HAL1     0.900000E-01   1.00800           0
      1553 MEMB     14       CHL1     C21      CTL3    -0.270000       12.0110           0
      1554 MEMB     14       CHL1     H21A     HAL3     0.900000E-01   1.00800           0
      1555 MEMB     14       CHL1     H21B     HAL3     0.900000E-01   1.00800           0
      1556 MEMB     14       CHL1     H21C     HAL3     0.900000E-01   1.00800           0
      1557 MEMB     14       CHL1     C22      CTL2    -0.180000       12.0110           0
      1558 MEMB     14       CHL1     H22A     HAL2     0.900000E-01   1.00800           0
      1559 MEMB     14       CHL1     H22B     HAL2     0.900000E-01   1.00800           0
      1560 MEMB     14       CHL1     C23      CTL2    -0.180000       12.0110           0
      1561 MEMB     14       CHL1     H23A     HAL2     0.900000E-01   1.00800           0
      1562 MEMB     14       CHL1     H23B     HAL2     0.900000E-01   1.00800           0
      1563 MEMB     14       CHL1     C24      CTL2    -0.180000       12.0110           0
      1564 MEMB     14       CHL1     H24A     HAL2     0.900000E-01   1.00800           0
      1565 MEMB     14       CHL1     H24B     HAL2     0.900000E-01   1.00800           0
      1566 MEMB     14       CHL1     C25      CTL1    -0.900000E-01   12.0110           0
      1567 MEMB     14       CHL1     H25      HAL1     0.900000E-01   1.00800           0
      1568 MEMB     14       CHL1     C26      CTL3    -0.270000       12.0110           0
      1569 MEMB     14       CHL1     H26A     HAL3     0.900000E-01   1.00800           0
      1570 MEMB     14       CHL1     H26B     HAL3     0.900000E-01   1.00800           0
      1571 MEMB     14       CHL1     H26C     HAL3     0.900000E-01   1.00800           0
      1572 MEMB     14       CHL1     C27      CTL3    -0.270000       12.0110           0
      1573 MEMB     14       CHL1     H27A     HAL3     0.900000E-01   1.00800           0
      1574 MEMB     14       CHL1     H27B     HAL3     0.900000E-01   1.00800           0
      1575 MEMB     14       CHL1     H27C     HAL3     0.900000E-01   1.00800           0
      1576 MEMB     15       CHL1     C3       CRL1     0.140000       12.0110           0
      1577 MEMB     15       CHL1     H3       HGA1     0.900000E-01   1.00800           0
      1578 MEMB     15       CHL1     O3       OHL     -0.660000       15.9994           0
      1579 MEMB     15       CHL1     H3'      HOL      0.430000       1.00800           0
      1580 MEMB     15       CHL1     C4       CRL2    -0.180000       12.0110           0
      1581 MEMB     15       CHL1     H4A      HGA2     0.900000E-01   1.00800           0
      1582 MEMB     15       CHL1     H4B      HGA2     0.900000E-01   1.00800           0
      1583 MEMB     15       CHL1     C5       CEL1      0.00000       12.0110           0
      1584 MEMB     15       CHL1     C6       CEL1    -0.150000       12.0110           0
      1585 MEMB     15       CHL1     H6       HEL1     0.150000       1.00800           0
      1586 MEMB     15       CHL1     C7       CRL2    -0.180000       12.0110           0
      1587 MEMB     15       CHL1     H7A      HGA2     0.900000E-01   1.00800           0
      1588 MEMB     15       CHL1     H7B      HGA2     0.900000E-01   1.00800           0
      1589 MEMB     15       CHL1     C8       CRL1    -0.900000E-01   12.0110           0
      1590 MEMB     15       CHL1     H8       HGA1     0.900000E-01   1.00800           0
      1591 MEMB     15       CHL1     C14      CRL1    -0.900000E-01   12.0110           0
      1592 MEMB     15       CHL1     H14      HGA1     0.900000E-01   1.00800           0
      1593 MEMB     15       CHL1     C15      CRL2    -0.180000       12.0110           0
      1594 MEMB     15       CHL1     H15A     HGA2     0.900000E-01   1.00800           0
      1595 MEMB     15       CHL1     H15B     HGA2     0.900000E-01   1.00800           0
      1596 MEMB     15       CHL1     C16      CRL2    -0.180000       12.0110           0
      1597 MEMB     15       CHL1     H16A     HGA2     0.900000E-01   1.00800           0
      1598 MEMB     15       CHL1     H16B     HGA2     0.900000E-01   1.00800           0
      1599 MEMB     15       CHL1     C17      CRL1    -0.900000E-01   12.0110           0
      1600 MEMB     15       CHL1     H17      HGA1     0.900000E-01   1.00800           0
      1601 MEMB     15       CHL1     C13      CRL1      0.00000       12.0110           0
      1602 MEMB     15       CHL1     C18      CTL3    -0.270000       12.0110           0
      1603 MEMB     15       CHL1     H18A     HAL3     0.900000E-01   1.00800           0
      1604 MEMB     15       CHL1     H18B     HAL3     0.900000E-01   1.00800           0
      1605 MEMB     15       CHL1     H18C     HAL3     0.900000E-01   1.00800           0
      1606 MEMB     15       CHL1     C12      CRL2    -0.180000       12.0110           0
      1607 MEMB     15       CHL1     H12A     HGA2     0.900000E-01   1.00800           0
      1608 MEMB     15       CHL1     H12B     HGA2     0.900000E-01   1.00800           0
      1609 MEMB     15       CHL1     C11      CRL2    -0.180000       12.0110           0
      1610 MEMB     15       CHL1     H11A     HGA2     0.900000E-01   1.00800           0
      1611 MEMB     15       CHL1     H11B     HGA2     0.900000E-01   1.00800           0
      1612 MEMB     15       CHL1     C9       CRL1    -0.900000E-01   12.0110           0
      1613 MEMB     15       CHL1     H9       HGA1     0.900000E-01   1.00800           0
      1614 MEMB     15       CHL1     C10      CRL1      0.00000       12.0110           0
      1615 MEMB     15       CHL1     C19      CTL3    -0.270000       12.0110           0
      1616 MEMB     15       CHL1     H19A     HAL3     0.900000E-01   1.00800           0
      1617 MEMB     15       CHL1     H19B     HAL3     0.900000E-01   1.00800           0
      1618 MEMB     15       CHL1     H19C     HAL3     0.900000E-01   1.00800           0
      1619 MEMB     15       CHL1     C1       CRL2    -0.180000       12.0110           0
      1620 MEMB     15       CHL1     H1A      HGA2     0.900000E-01   1.00800           0
      1621 MEMB     15       CHL1     H1B      HGA2     0.900000E-01   1.00800           0
      1622 MEMB     15       CHL1     C2       CRL2    -0.180000       12.0110           0
      1623 MEMB     15       CHL1     H2A      HGA2     0.900000E-01   1.00800           0
      1624 MEMB     15       CHL1     H2B      HGA2     0.900000E-01   1.00800           0
      1625 MEMB     15       CHL1     C20      CTL1    -0.900000E-01   12.0110           0
      1626 MEMB     15       CHL1     H20      HAL1     0.900000E-01   1.00800           0
      1627 MEMB     15       CHL1     C21      CTL3    -0.270000       12.0110           0
      1628 MEMB     15       CHL1     H21A     HAL3     0.900000E-01   1.00800           0
      1629 MEMB     15       CHL1     H21B     HAL3     0.900000E-01   1.00800           0
      1630 MEMB     15       CHL1     H21C     HAL3     0.900000E-01   1.00800           0
      1631 MEMB     15       CHL1     C22      CTL2    -0.180000       12.0110           0
      1632 MEMB     15       CHL1     H22A     HAL2     0.900000E-01   1.00800           0
      1633 MEMB     15       CHL1     H22B     HAL2     0.900000E-01   1.00800           0
      1634 MEMB     15       CHL1     C23      CTL2    -0.180000       12.0110           0
      1635 MEMB     15       CHL1     H23A     HAL2     0.900000E-01   1.00800           0
      1636 MEMB     15       CHL1     H23B     HAL2     0.900000E-01   1.00800           0
      1637 MEMB     15       CHL1     C24      CTL2    -0.180000       12.0110           0
      1638 MEMB     15       CHL1     H24A     HAL2     0.900000E-01   1.00800           0
      1639 MEMB     15       CHL1     H24B     HAL2     0.900000E-01   1.00800           0
      1640 MEMB     15       CHL1     C25      CTL1    -0.900000E-01   12.0110           0
      1641 MEMB     15       CHL1     H25      HAL1     0.900000E-01   1.00800           0
      1642 MEMB     15       CHL1     C26      CTL3    -0.270000       12.0110           0
      1643 MEMB     15       CHL1     H26A     HAL3     0.900000E-01   1.00800           0
      1644 MEMB     15       CHL1     H26B     HAL3     0.900000E-01   1.00800           0
      1645 MEMB     15       CHL1     H26C     HAL3     0.900000E-01   1.00800           0
      1646 MEMB     15       CHL1     C27      CTL3    -0.270000       12.0110           0
      1647 MEMB     15       CHL1     H27A     HAL3     0.900000E-01   1.00800           0
      1648 MEMB     15       CHL1     H27B     HAL3     0.900000E-01   1.00800           0
      1649 MEMB     15       CHL1     H27C     HAL3     0.900000E-01   1.00800           0
      1650 MEMB     16       CHL1     C3       CRL1     0.140000       12.0110           0
      1651 MEMB     16       CHL1     H3       HGA1     0.900000E-01   1.00800           0
      1652 MEMB     16       CHL1     O3       OHL     -0.660000       15.9994           0
      1653 MEMB     16       CHL1     H3'      HOL      0.430000       1.00800           0
      1654 MEMB     16       CHL1     C4       CRL2    -0.180000       12.0110           0
      1655 MEMB     16       CHL1     H4A      HGA2     0.900000E-01   1.00800           0
      1656 MEMB     16       CHL1     H4B      HGA2     0.900000E-01   1.00800           0
      1657 MEMB     16       CHL1     C5       CEL1      0.00000       12.0110           0
      1658 MEMB     16       CHL1     C6       CEL1    -0.150000       12.0110           0
      1659 MEMB     16       CHL1     H6       HEL1     0.150000       1.00800           0
      1660 MEMB     16       CHL1     C7       CRL2    -0.180000       12.0110           0
      1661 MEMB     16       CHL1     H7A      HGA2     0.900000E-01   1.00800           0
      1662 MEMB     16       CHL1     H7B      HGA2     0.900000E-01   1.00800           0
      1663 MEMB     16       CHL1     C8       CRL1    -0.900000E-01   12.0110           0
      1664 MEMB     16       CHL1     H8       HGA1     0.900000E-01   1.00800           0
      1665 MEMB     16       CHL1     C14      CRL1    -0.900000E-01   12.0110           0
      1666 MEMB     16       CHL1     H14      HGA1     0.900000E-01   1.00800           0
      1667 MEMB     16       CHL1     C15      CRL2    -0.180000       12.0110           0
      1668 MEMB     16       CHL1     H15A     HGA2     0.900000E-01   1.00800           0
      1669 MEMB     16       CHL1     H15B     HGA2     0.900000E-01   1.00800           0
      1670 MEMB     16       CHL1     C16      CRL2    -0.180000       12.0110           0
      1671 MEMB     16       CHL1     H16A     HGA2     0.900000E-01   1.00800           0
      1672 MEMB     16       CHL1     H16B     HGA2     0.900000E-01   1.00800           0
      1673 MEMB     16       CHL1     C17      CRL1    -0.900000E-01   12.0110           0
      1674 MEMB     16       CHL1     H17      HGA1     0.900000E-01   1.00800           0
      1675 MEMB     16       CHL1     C13      CRL1      0.00000       12.0110           0
      1676 MEMB     16       CHL1     C18      CTL3    -0.270000       12.0110           0
      1677 MEMB     16       CHL1     H18A     HAL3     0.900000E-01   1.00800           0
      1678 MEMB     16       CHL1     H18B     HAL3     0.900000E-01   1.00800           0
      1679 MEMB     16       CHL1     H18C     HAL3     0.900000E-01   1.00800           0
      1680 MEMB     16       CHL1     C12      CRL2    -0.180000       12.0110           0
      1681 MEMB     16       CHL1     H12A     HGA2     0.900000E-01   1.00800           0
      1682 MEMB     16       CHL1     H12B     HGA2     0.900000E-01   1.00800           0
      1683 MEMB     16       CHL1     C11      CRL2    -0.180000       12.0110           0
      1684 MEMB     16       CHL1     H11A     HGA2     0.900000E-01   1.00800           0
      1685 MEMB     16       CHL1     H11B     HGA2     0.900000E-01   1.00800           0
      1686 MEMB     16       CHL1     C9       CRL1    -0.900000E-01   12.0110           0
      1687 MEMB     16       CHL1     H9       HGA1     0.900000E-01   1.00800           0
      1688 MEMB     16       CHL1     C10      CRL1      0.00000       12.0110           0
      1689 MEMB     16       CHL1     C19      CTL3    -0.270000       12.0110           0
      1690 MEMB     16       CHL1     H19A     HAL3     0.900000E-01   1.00800           0
      1691 MEMB     16       CHL1     H19B     HAL3     0.900000E-01   1.00800           0
      1692 MEMB     16       CHL1     H19C     HAL3     0.900000E-01   1.00800           0
      1693 MEMB     16       CHL1     C1       CRL2    -0.180000       12.0110           0
      1694 MEMB     16       CHL1     H1A      HGA2     0.900000E-01   1.00800           0
      1695 MEMB     16       CHL1     H1B      HGA2     0.900000E-01   1.00800           0
      1696 MEMB     16       CHL1     C2       CRL2    -0.180000       12.0110           0
      1697 MEMB     16       CHL1     H2A      HGA2     0.900000E-01   1.00800           0
      1698 MEMB     16       CHL1     H2B      HGA2     0.900000E-01   1.00800           0
      1699 MEMB     16       CHL1     C20      CTL1    -0.900000E-01   12.0110           0
      1700 MEMB     16       CHL1     H20      HAL1     0.900000E-01   1.00800           0
      1701 MEMB     16       CHL1     C21      CTL3    -0.270000       12.0110           0
      1702 MEMB     16       CHL1     H21A     HAL3     0.900000E-01   1.00800           0
      1703 MEMB     16       CHL1     H21B     HAL3     0.900000E-01   1.00800           0
      1704 MEMB     16       CHL1     H21C     HAL3     0.900000E-01   1.00800           0
      1705 MEMB     16       CHL1     C22      CTL2    -0.180000       12.0110           0
      1706 MEMB     16       CHL1     H22A     HAL2     0.900000E-01   1.00800           0
      1707 MEMB     16       CHL1     H22B     HAL2     0.900000E-01   1.00800           0
      1708 MEMB     16       CHL1     C23      CTL2    -0.180000       12.0110           0
      1709 MEMB     16       CHL1     H23A     HAL2     0.900000E-01   1.00800           0
      1710 MEMB     16       CHL1     H23B     HAL2     0.900000E-01   1.00800           0
      1711 MEMB     16       CHL1     C24      CTL2    -0.180000       12.0110           0
      1712 MEMB     16       CHL1     H24A     HAL2     0.900000E-01   1.00800           0
      1713 MEMB     16       CHL1     H24B     HAL2     0.900000E-01   1.00800           0
      1714 MEMB     16       CHL1     C25      CTL1    -0.900000E-01   12.0110           0
      1715 MEMB     16       CHL1     H25      HAL1     0.900000E-01   1.00800           0
      1716 MEMB     16       CHL1     C26      CTL3    -0.270000       12.0110           0
      1717 MEMB     16       CHL1     H26A     HAL3     0.900000E-01   1.00800           0
      1718 MEMB     16       CHL1     H26B     HAL3     0.900000E-01   1.00800           0
      1719 MEMB     16       CHL1     H26C     HAL3     0.900000E-01   1.00800           0
      1720 MEMB     16       CHL1     C27      CTL3    -0.270000       12.0110           0
      1721 MEMB     16       CHL1     H27A     HAL3     0.900000E-01   1.00800           0
      1722 MEMB     16       CHL1     H27B     HAL3     0.900000E-01   1.00800           0
      1723 MEMB     16       CHL1     H27C     HAL3     0.900000E-01   1.00800           0
      1724 MEMB     17       SAPS     N        NH3L    -0.300000       14.0070           0
      1725 MEMB     17       SAPS     HN1      HCL      0.330000       1.00800           0
      1726 MEMB     17       SAPS     HN2      HCL      0.330000       1.00800           0
      1727 MEMB     17       SAPS     HN3      HCL      0.330000       1.00800           0
      1728 MEMB     17       SAPS     C12      CTL1     0.210000       12.0110           0
      1729 MEMB     17       SAPS     H12A     HBL      0.100000       1.00800           0
      1730 MEMB     17       SAPS     C13      CCL      0.340000       12.0110           0
      1731 MEMB     17       SAPS     O13A     OCL     -0.670000       15.9994           0
      1732 MEMB     17       SAPS     O13B     OCL     -0.670000       15.9994           0
      1733 MEMB     17       SAPS     C11      CTL2    -0.800000E-01   12.0110           0
      1734 MEMB     17       SAPS     H11A     HAL2     0.900000E-01   1.00800           0
      1735 MEMB     17       SAPS     H11B     HAL2     0.900000E-01   1.00800           0
      1736 MEMB     17       SAPS     P        PL        1.50000       30.9740           0
      1737 MEMB     17       SAPS     O13      O2L     -0.780000       15.9994           0
      1738 MEMB     17       SAPS     O14      O2L     -0.780000       15.9994           0
      1739 MEMB     17       SAPS     O12      OSLP    -0.570000       15.9994           0
      1740 MEMB     17       SAPS     O11      OSLP    -0.570000       15.9994           0
      1741 MEMB     17       SAPS     C1       CTL2    -0.800000E-01   12.0110           0
      1742 MEMB     17       SAPS     HA       HAL2     0.900000E-01   1.00800           0
      1743 MEMB     17       SAPS     HB       HAL2     0.900000E-01   1.00800           0
      1744 MEMB     17       SAPS     C2       CTL1     0.170000       12.0110           0
      1745 MEMB     17       SAPS     HS       HAL1     0.900000E-01   1.00800           0
      1746 MEMB     17       SAPS     O21      OSL     -0.490000       15.9994           0
      1747 MEMB     17       SAPS     C21      CL       0.900000       12.0110           0
      1748 MEMB     17       SAPS     O22      OBL     -0.630000       15.9994           0
      1749 MEMB     17       SAPS     C22      CTL2    -0.220000       12.0110           0
      1750 MEMB     17       SAPS     H2R      HAL2     0.900000E-01   1.00800           0
      1751 MEMB     17       SAPS     H2S      HAL2     0.900000E-01   1.00800           0
      1752 MEMB     17       SAPS     C3       CTL2     0.800000E-01   12.0110           0
      1753 MEMB     17       SAPS     HX       HAL2     0.900000E-01   1.00800           0
      1754 MEMB     17       SAPS     HY       HAL2     0.900000E-01   1.00800           0
      1755 MEMB     17       SAPS     O31      OSL     -0.490000       15.9994           0
      1756 MEMB     17       SAPS     C31      CL       0.900000       12.0110           0
      1757 MEMB     17       SAPS     O32      OBL     -0.630000       15.9994           0
      1758 MEMB     17       SAPS     C32      CTL2    -0.220000       12.0110           0
      1759 MEMB     17       SAPS     H2X      HAL2     0.900000E-01   1.00800           0
      1760 MEMB     17       SAPS     H2Y      HAL2     0.900000E-01   1.00800           0
      1761 MEMB     17       SAPS     C23      CTL2    -0.180000       12.0110           0
      1762 MEMB     17       SAPS     H3R      HAL2     0.900000E-01   1.00800           0
      1763 MEMB     17       SAPS     H3S      HAL2     0.900000E-01   1.00800           0
      1764 MEMB     17       SAPS     C24      CTL2    -0.180000       12.0110           0
      1765 MEMB     17       SAPS     H4R      HAL2     0.900000E-01   1.00800           0
      1766 MEMB     17       SAPS     H4S      HAL2     0.900000E-01   1.00800           0
      1767 MEMB     17       SAPS     C25      CEL1    -0.150000       12.0110           0
      1768 MEMB     17       SAPS     H5R      HEL1     0.150000       1.00800           0
      1769 MEMB     17       SAPS     C26      CEL1    -0.150000       12.0110           0
      1770 MEMB     17       SAPS     H6R      HEL1     0.150000       1.00800           0
      1771 MEMB     17       SAPS     C27      CTL2    -0.180000       12.0110           0
      1772 MEMB     17       SAPS     H7R      HAL2     0.900000E-01   1.00800           0
      1773 MEMB     17       SAPS     H7S      HAL2     0.900000E-01   1.00800           0
      1774 MEMB     17       SAPS     C28      CEL1    -0.150000       12.0110           0
      1775 MEMB     17       SAPS     H8R      HEL1     0.150000       1.00800           0
      1776 MEMB     17       SAPS     C29      CEL1    -0.150000       12.0110           0
      1777 MEMB     17       SAPS     H9R      HEL1     0.150000       1.00800           0
      1778 MEMB     17       SAPS     C210     CTL2    -0.180000       12.0110           0
      1779 MEMB     17       SAPS     H10R     HAL2     0.900000E-01   1.00800           0
      1780 MEMB     17       SAPS     H10S     HAL2     0.900000E-01   1.00800           0
      1781 MEMB     17       SAPS     C211     CEL1    -0.150000       12.0110           0
      1782 MEMB     17       SAPS     H11R     HEL1     0.150000       1.00800           0
      1783 MEMB     17       SAPS     C212     CEL1    -0.150000       12.0110           0
      1784 MEMB     17       SAPS     H12R     HEL1     0.150000       1.00800           0
      1785 MEMB     17       SAPS     C213     CTL2    -0.180000       12.0110           0
      1786 MEMB     17       SAPS     H13R     HAL2     0.900000E-01   1.00800           0
      1787 MEMB     17       SAPS     H13S     HAL2     0.900000E-01   1.00800           0
      1788 MEMB     17       SAPS     C214     CEL1    -0.150000       12.0110           0
      1789 MEMB     17       SAPS     H14R     HEL1     0.150000       1.00800           0
      1790 MEMB     17       SAPS     C215     CEL1    -0.150000       12.0110           0
      1791 MEMB     17       SAPS     H15R     HEL1     0.150000       1.00800           0
      1792 MEMB     17       SAPS     C216     CTL2    -0.180000       12.0110           0
      1793 MEMB     17       SAPS     H16R     HAL2     0.900000E-01   1.00800           0
      1794 MEMB     17       SAPS     H16S     HAL2     0.900000E-01   1.00800           0
      1795 MEMB     17       SAPS     C217     CTL2    -0.180000       12.0110           0
      1796 MEMB     17       SAPS     H17R     HAL2     0.900000E-01   1.00800           0
      1797 MEMB     17       SAPS     H17S     HAL2     0.900000E-01   1.00800           0
      1798 MEMB     17       SAPS     C218     CTL2    -0.180000       12.0110           0
      1799 MEMB     17       SAPS     H18R     HAL2     0.900000E-01   1.00800           0
      1800 MEMB     17       SAPS     H18S     HAL2     0.900000E-01   1.00800           0
      1801 MEMB     17       SAPS     C219     CTL2    -0.180000       12.0110           0
      1802 MEMB     17       SAPS     H19R     HAL2     0.900000E-01   1.00800           0
      1803 MEMB     17       SAPS     H19S     HAL2     0.900000E-01   1.00800           0
      1804 MEMB     17       SAPS     C220     CTL3    -0.270000       12.0110           0
      1805 MEMB     17       SAPS     H20R     HAL3     0.900000E-01   1.00800           0
      1806 MEMB     17       SAPS     H20S     HAL3     0.900000E-01   1.00800           0
      1807 MEMB     17       SAPS     H20T     HAL3     0.900000E-01   1.00800           0
      1808 MEMB     17       SAPS     C33      CTL2    -0.180000       12.0110           0
      1809 MEMB     17       SAPS     H3X      HAL2     0.900000E-01   1.00800           0
      1810 MEMB     17       SAPS     H3Y      HAL2     0.900000E-01   1.00800           0
      1811 MEMB     17       SAPS     C34      CTL2    -0.180000       12.0110           0
      1812 MEMB     17       SAPS     H4X      HAL2     0.900000E-01   1.00800           0
      1813 MEMB     17       SAPS     H4Y      HAL2     0.900000E-01   1.00800           0
      1814 MEMB     17       SAPS     C35      CTL2    -0.180000       12.0110           0
      1815 MEMB     17       SAPS     H5X      HAL2     0.900000E-01   1.00800           0
      1816 MEMB     17       SAPS     H5Y      HAL2     0.900000E-01   1.00800           0
      1817 MEMB     17       SAPS     C36      CTL2    -0.180000       12.0110           0
      1818 MEMB     17       SAPS     H6X      HAL2     0.900000E-01   1.00800           0
      1819 MEMB     17       SAPS     H6Y      HAL2     0.900000E-01   1.00800           0
      1820 MEMB     17       SAPS     C37      CTL2    -0.180000       12.0110           0
      1821 MEMB     17       SAPS     H7X      HAL2     0.900000E-01   1.00800           0
      1822 MEMB     17       SAPS     H7Y      HAL2     0.900000E-01   1.00800           0
      1823 MEMB     17       SAPS     C38      CTL2    -0.180000       12.0110           0
      1824 MEMB     17       SAPS     H8X      HAL2     0.900000E-01   1.00800           0
      1825 MEMB     17       SAPS     H8Y      HAL2     0.900000E-01   1.00800           0
      1826 MEMB     17       SAPS     C39      CTL2    -0.180000       12.0110           0
      1827 MEMB     17       SAPS     H9X      HAL2     0.900000E-01   1.00800           0
      1828 MEMB     17       SAPS     H9Y      HAL2     0.900000E-01   1.00800           0
      1829 MEMB     17       SAPS     C310     CTL2    -0.180000       12.0110           0
      1830 MEMB     17       SAPS     H10X     HAL2     0.900000E-01   1.00800           0
      1831 MEMB     17       SAPS     H10Y     HAL2     0.900000E-01   1.00800           0
      1832 MEMB     17       SAPS     C311     CTL2    -0.180000       12.0110           0
      1833 MEMB     17       SAPS     H11X     HAL2     0.900000E-01   1.00800           0
      1834 MEMB     17       SAPS     H11Y     HAL2     0.900000E-01   1.00800           0
      1835 MEMB     17       SAPS     C312     CTL2    -0.180000       12.0110           0
      1836 MEMB     17       SAPS     H12X     HAL2     0.900000E-01   1.00800           0
      1837 MEMB     17       SAPS     H12Y     HAL2     0.900000E-01   1.00800           0
      1838 MEMB     17       SAPS     C313     CTL2    -0.180000       12.0110           0
      1839 MEMB     17       SAPS     H13X     HAL2     0.900000E-01   1.00800           0
      1840 MEMB     17       SAPS     H13Y     HAL2     0.900000E-01   1.00800           0
      1841 MEMB     17       SAPS     C314     CTL2    -0.180000       12.0110           0
      1842 MEMB     17       SAPS     H14X     HAL2     0.900000E-01   1.00800           0
      1843 MEMB     17       SAPS     H14Y     HAL2     0.900000E-01   1.00800           0
      1844 MEMB     17       SAPS     C315     CTL2    -0.180000       12.0110           0
      1845 MEMB     17       SAPS     H15X     HAL2     0.900000E-01   1.00800           0
      1846 MEMB     17       SAPS     H15Y     HAL2     0.900000E-01   1.00800           0
      1847 MEMB     17       SAPS     C316     CTL2    -0.180000       12.0110           0
      1848 MEMB     17       SAPS     H16X     HAL2     0.900000E-01   1.00800           0
      1849 MEMB     17       SAPS     H16Y     HAL2     0.900000E-01   1.00800           0
      1850 MEMB     17       SAPS     C317     CTL2    -0.180000       12.0110           0
      1851 MEMB     17       SAPS     H17X     HAL2     0.900000E-01   1.00800           0
      1852 MEMB     17       SAPS     H17Y     HAL2     0.900000E-01   1.00800           0
      1853 MEMB     17       SAPS     C318     CTL3    -0.270000       12.0110           0
      1854 MEMB     17       SAPS     H18X     HAL3     0.900000E-01   1.00800           0
      1855 MEMB     17       SAPS     H18Y     HAL3     0.900000E-01   1.00800           0
      1856 MEMB     17       SAPS     H18Z     HAL3     0.900000E-01   1.00800           0
      1857 MEMB     18       OSM      N        NTL     -0.600000       14.0070           0
      1858 MEMB     18       OSM      C15      CTL5    -0.350000       12.0110           0
      1859 MEMB     18       OSM      H15A     HL       0.250000       1.00800           0
      1860 MEMB     18       OSM      H15B     HL       0.250000       1.00800           0
      1861 MEMB     18       OSM      H15C     HL       0.250000       1.00800           0
      1862 MEMB     18       OSM      C14      CTL5    -0.350000       12.0110           0
      1863 MEMB     18       OSM      H14A     HL       0.250000       1.00800           0
      1864 MEMB     18       OSM      H14B     HL       0.250000       1.00800           0
      1865 MEMB     18       OSM      H14C     HL       0.250000       1.00800           0
      1866 MEMB     18       OSM      C13      CTL5    -0.350000       12.0110           0
      1867 MEMB     18       OSM      H13A     HL       0.250000       1.00800           0
      1868 MEMB     18       OSM      H13B     HL       0.250000       1.00800           0
      1869 MEMB     18       OSM      H13C     HL       0.250000       1.00800           0
      1870 MEMB     18       OSM      C12      CTL2    -0.100000       12.0110           0
      1871 MEMB     18       OSM      H12A     HL       0.250000       1.00800           0
      1872 MEMB     18       OSM      H12B     HL       0.250000       1.00800           0
      1873 MEMB     18       OSM      C11      CTL2    -0.800000E-01   12.0110           0
      1874 MEMB     18       OSM      H11A     HAL2     0.900000E-01   1.00800           0
      1875 MEMB     18       OSM      H11B     HAL2     0.900000E-01   1.00800           0
      1876 MEMB     18       OSM      P        PL        1.50000       30.9740           0
      1877 MEMB     18       OSM      O13      O2L     -0.780000       15.9994           0
      1878 MEMB     18       OSM      O14      O2L     -0.780000       15.9994           0
      1879 MEMB     18       OSM      O11      OSLP    -0.570000       15.9994           0
      1880 MEMB     18       OSM      O12      OSLP    -0.570000       15.9994           0
      1881 MEMB     18       OSM      C1S      CTL2    -0.800000E-01   12.0110           0
      1882 MEMB     18       OSM      H1S      HAL2     0.900000E-01   1.00800           0
      1883 MEMB     18       OSM      H1T      HAL2     0.900000E-01   1.00800           0
      1884 MEMB     18       OSM      NF       NHL     -0.700000       14.0070           0
      1885 MEMB     18       OSM      HNF      H        0.350000       1.00800           0
      1886 MEMB     18       OSM      C2S      CTL1     0.300000       12.0110           0
      1887 MEMB     18       OSM      H2S      HAL1     0.500000E-01   1.00800           0
      1888 MEMB     18       OSM      C3S      CTO1     0.500000       12.0110           0
      1889 MEMB     18       OSM      H3S      HAL1    -0.110000       1.00800           0
      1890 MEMB     18       OSM      O3       OHL     -0.690000       15.9994           0
      1891 MEMB     18       OSM      HO3      HOL      0.300000       1.00800           0
      1892 MEMB     18       OSM      C4S      CEL3    -0.150000       12.0110           0
      1893 MEMB     18       OSM      H4S      HEL1     0.150000       1.00800           0
      1894 MEMB     18       OSM      C5S      CEL3    -0.150000       12.0110           0
      1895 MEMB     18       OSM      H5S      HEL1     0.150000       1.00800           0
      1896 MEMB     18       OSM      C6S      CTL2    -0.180000       12.0110           0
      1897 MEMB     18       OSM      H6S      HAL2     0.900000E-01   1.00800           0
      1898 MEMB     18       OSM      H6T      HAL2     0.900000E-01   1.00800           0
      1899 MEMB     18       OSM      C7S      CTL2    -0.180000       12.0110           0
      1900 MEMB     18       OSM      H7S      HAL2     0.900000E-01   1.00800           0
      1901 MEMB     18       OSM      H7T      HAL2     0.900000E-01   1.00800           0
      1902 MEMB     18       OSM      C8S      CTL2    -0.180000       12.0110           0
      1903 MEMB     18       OSM      H8S      HAL2     0.900000E-01   1.00800           0
      1904 MEMB     18       OSM      H8T      HAL2     0.900000E-01   1.00800           0
      1905 MEMB     18       OSM      C9S      CTL2    -0.180000       12.0110           0
      1906 MEMB     18       OSM      H9S      HAL2     0.900000E-01   1.00800           0
      1907 MEMB     18       OSM      H9T      HAL2     0.900000E-01   1.00800           0
      1908 MEMB     18       OSM      C10S     CTL2    -0.180000       12.0110           0
      1909 MEMB     18       OSM      H10S     HAL2     0.900000E-01   1.00800           0
      1910 MEMB     18       OSM      H10T     HAL2     0.900000E-01   1.00800           0
      1911 MEMB     18       OSM      C11S     CTL2    -0.180000       12.0110           0
      1912 MEMB     18       OSM      H11S     HAL2     0.900000E-01   1.00800           0
      1913 MEMB     18       OSM      H11T     HAL2     0.900000E-01   1.00800           0
      1914 MEMB     18       OSM      C12S     CTL2    -0.180000       12.0110           0
      1915 MEMB     18       OSM      H12S     HAL2     0.900000E-01   1.00800           0
      1916 MEMB     18       OSM      H12T     HAL2     0.900000E-01   1.00800           0
      1917 MEMB     18       OSM      C13S     CTL2    -0.180000       12.0110           0
      1918 MEMB     18       OSM      H13S     HAL2     0.900000E-01   1.00800           0
      1919 MEMB     18       OSM      H13T     HAL2     0.900000E-01   1.00800           0
      1920 MEMB     18       OSM      C14S     CTL2    -0.180000       12.0110           0
      1921 MEMB     18       OSM      H14S     HAL2     0.900000E-01   1.00800           0
      1922 MEMB     18       OSM      H14T     HAL2     0.900000E-01   1.00800           0
      1923 MEMB     18       OSM      C15S     CTL2    -0.180000       12.0110           0
      1924 MEMB     18       OSM      H15S     HAL2     0.900000E-01   1.00800           0
      1925 MEMB     18       OSM      H15T     HAL2     0.900000E-01   1.00800           0
      1926 MEMB     18       OSM      C16S     CTL2    -0.180000       12.0110           0
      1927 MEMB     18       OSM      H16S     HAL2     0.900000E-01   1.00800           0
      1928 MEMB     18       OSM      H16T     HAL2     0.900000E-01   1.00800           0
      1929 MEMB     18       OSM      C17S     CTL2    -0.180000       12.0110           0
      1930 MEMB     18       OSM      H17S     HAL2     0.900000E-01   1.00800           0
      1931 MEMB     18       OSM      H17T     HAL2     0.900000E-01   1.00800           0
      1932 MEMB     18       OSM      C18S     CTL3    -0.270000       12.0110           0
      1933 MEMB     18       OSM      H18S     HAL3     0.900000E-01   1.00800           0
      1934 MEMB     18       OSM      H18T     HAL3     0.900000E-01   1.00800           0
      1935 MEMB     18       OSM      H18U     HAL3     0.900000E-01   1.00800           0
      1936 MEMB     18       OSM      C1F      C        0.550000       12.0110           0
      1937 MEMB     18       OSM      OF       O       -0.600000       15.9994           0
      1938 MEMB     18       OSM      C2F      CTL2    -0.700000E-01   12.0110           0
      1939 MEMB     18       OSM      H2F      HAL2     0.600000E-01   1.00800           0
      1940 MEMB     18       OSM      H2G      HAL2     0.600000E-01   1.00800           0
      1941 MEMB     18       OSM      C3F      CTL2    -0.180000       12.0110           0
      1942 MEMB     18       OSM      H3F      HAL2     0.900000E-01   1.00800           0
      1943 MEMB     18       OSM      H3G      HAL2     0.900000E-01   1.00800           0
      1944 MEMB     18       OSM      C4F      CTL2    -0.180000       12.0110           0
      1945 MEMB     18       OSM      H4F      HAL2     0.900000E-01   1.00800           0
      1946 MEMB     18       OSM      H4G      HAL2     0.900000E-01   1.00800           0
      1947 MEMB     18       OSM      C5F      CTL2    -0.180000       12.0110           0
      1948 MEMB     18       OSM      H5F      HAL2     0.900000E-01   1.00800           0
      1949 MEMB     18       OSM      H5G      HAL2     0.900000E-01   1.00800           0
      1950 MEMB     18       OSM      C6F      CTL2    -0.180000       12.0110           0
      1951 MEMB     18       OSM      H6F      HAL2     0.900000E-01   1.00800           0
      1952 MEMB     18       OSM      H6G      HAL2     0.900000E-01   1.00800           0
      1953 MEMB     18       OSM      C7F      CTL2    -0.180000       12.0110           0
      1954 MEMB     18       OSM      H7F      HAL2     0.900000E-01   1.00800           0
      1955 MEMB     18       OSM      H7G      HAL2     0.900000E-01   1.00800           0
      1956 MEMB     18       OSM      C8F      CTL2    -0.180000       12.0110           0
      1957 MEMB     18       OSM      H8F      HAL2     0.900000E-01   1.00800           0
      1958 MEMB     18       OSM      H8G      HAL2     0.900000E-01   1.00800           0
      1959 MEMB     18       OSM      C9F      CEL1    -0.150000       12.0110           0
      1960 MEMB     18       OSM      H9F      HEL1     0.150000       1.00800           0
      1961 MEMB     18       OSM      C10F     CEL1    -0.150000       12.0110           0
      1962 MEMB     18       OSM      H10F     HEL1     0.150000       1.00800           0
      1963 MEMB     18       OSM      C11F     CTL2    -0.180000       12.0110           0
      1964 MEMB     18       OSM      H11F     HAL2     0.900000E-01   1.00800           0
      1965 MEMB     18       OSM      H11G     HAL2     0.900000E-01   1.00800           0
      1966 MEMB     18       OSM      C12F     CTL2    -0.180000       12.0110           0
      1967 MEMB     18       OSM      H12F     HAL2     0.900000E-01   1.00800           0
      1968 MEMB     18       OSM      H12G     HAL2     0.900000E-01   1.00800           0
      1969 MEMB     18       OSM      C13F     CTL2    -0.180000       12.0110           0
      1970 MEMB     18       OSM      H13F     HAL2     0.900000E-01   1.00800           0
      1971 MEMB     18       OSM      H13G     HAL2     0.900000E-01   1.00800           0
      1972 MEMB     18       OSM      C14F     CTL2    -0.180000       12.0110           0
      1973 MEMB     18       OSM      H14F     HAL2     0.900000E-01   1.00800           0
      1974 MEMB     18       OSM      H14G     HAL2     0.900000E-01   1.00800           0
      1975 MEMB     18       OSM      C15F     CTL2    -0.180000       12.0110           0
      1976 MEMB     18       OSM      H15F     HAL2     0.900000E-01   1.00800           0
      1977 MEMB     18       OSM      H15G     HAL2     0.900000E-01   1.00800           0
      1978 MEMB     18       OSM      C16F     CTL2    -0.180000       12.0110           0
      1979 MEMB     18       OSM      H16F     HAL2     0.900000E-01   1.00800           0
      1980 MEMB     18       OSM      H16G     HAL2     0.900000E-01   1.00800           0
      1981 MEMB     18       OSM      C17F     CTL2    -0.180000       12.0110           0
      1982 MEMB     18       OSM      H17F     HAL2     0.900000E-01   1.00800           0
      1983 MEMB     18       OSM      H17G     HAL2     0.900000E-01   1.00800           0
      1984 MEMB     18       OSM      C18F     CTL3    -0.270000       12.0110           0
      1985 MEMB     18       OSM      H18F     HAL3     0.900000E-01   1.00800           0
      1986 MEMB     18       OSM      H18G     HAL3     0.900000E-01   1.00800           0
      1987 MEMB     18       OSM      H18H     HAL3     0.900000E-01   1.00800           0
      1988 MEMB     19       SAPI     C12      CC3161   0.140000       12.0110           0
      1989 MEMB     19       SAPI     H2       HCA1     0.900000E-01   1.00800           0
      1990 MEMB     19       SAPI     O2       OC311   -0.650000       15.9994           0
      1991 MEMB     19       SAPI     HO2      HCP1     0.420000       1.00800           0
      1992 MEMB     19       SAPI     C13      CC3161   0.140000       12.0110           0
      1993 MEMB     19       SAPI     H3       HCA1     0.900000E-01   1.00800           0
      1994 MEMB     19       SAPI     O3       OC311   -0.650000       15.9994           0
      1995 MEMB     19       SAPI     HO3      HCP1     0.420000       1.00800           0
      1996 MEMB     19       SAPI     C14      CC3161   0.140000       12.0110           0
      1997 MEMB     19       SAPI     H4       HCA1     0.900000E-01   1.00800           0
      1998 MEMB     19       SAPI     O4       OC311   -0.650000       15.9994           0
      1999 MEMB     19       SAPI     HO4      HCP1     0.420000       1.00800           0
      2000 MEMB     19       SAPI     C15      CC3161   0.140000       12.0110           0
      2001 MEMB     19       SAPI     H5       HCA1     0.900000E-01   1.00800           0
      2002 MEMB     19       SAPI     O5       OC311   -0.650000       15.9994           0
      2003 MEMB     19       SAPI     HO5      HCP1     0.420000       1.00800           0
      2004 MEMB     19       SAPI     C16      CC3161   0.140000       12.0110           0
      2005 MEMB     19       SAPI     H6       HCA1     0.900000E-01   1.00800           0
      2006 MEMB     19       SAPI     O6       OC311   -0.650000       15.9994           0
      2007 MEMB     19       SAPI     HO6      HCP1     0.420000       1.00800           0
      2008 MEMB     19       SAPI     C11      CC3161  -0.800000E-01   12.0110           0
      2009 MEMB     19       SAPI     H1       HCA1     0.900000E-01   1.00800           0
      2010 MEMB     19       SAPI     P        PL        1.59000       30.9740           0
      2011 MEMB     19       SAPI     O13      O2L     -0.780000       15.9994           0
      2012 MEMB     19       SAPI     O14      O2L     -0.780000       15.9994           0
      2013 MEMB     19       SAPI     O12      OC30P   -0.570000       15.9994           0
      2014 MEMB     19       SAPI     O11      OSLP    -0.570000       15.9994           0
      2015 MEMB     19       SAPI     C1       CTL2    -0.800000E-01   12.0110           0
      2016 MEMB     19       SAPI     HA       HAL2     0.900000E-01   1.00800           0
      2017 MEMB     19       SAPI     HB       HAL2     0.900000E-01   1.00800           0
      2018 MEMB     19       SAPI     C2       CTL1     0.170000       12.0110           0
      2019 MEMB     19       SAPI     HS       HAL1     0.900000E-01   1.00800           0
      2020 MEMB     19       SAPI     O21      OSL     -0.490000       15.9994           0
      2021 MEMB     19       SAPI     C21      CL       0.900000       12.0110           0
      2022 MEMB     19       SAPI     O22      OBL     -0.630000       15.9994           0
      2023 MEMB     19       SAPI     C22      CTL2    -0.220000       12.0110           0
      2024 MEMB     19       SAPI     H2R      HAL2     0.900000E-01   1.00800           0
      2025 MEMB     19       SAPI     H2S      HAL2     0.900000E-01   1.00800           0
      2026 MEMB     19       SAPI     C3       CTL2     0.800000E-01   12.0110           0
      2027 MEMB     19       SAPI     HX       HAL2     0.900000E-01   1.00800           0
      2028 MEMB     19       SAPI     HY       HAL2     0.900000E-01   1.00800           0
      2029 MEMB     19       SAPI     O31      OSL     -0.490000       15.9994           0
      2030 MEMB     19       SAPI     C31      CL       0.900000       12.0110           0
      2031 MEMB     19       SAPI     O32      OBL     -0.630000       15.9994           0
      2032 MEMB     19       SAPI     C32      CTL2    -0.220000       12.0110           0
      2033 MEMB     19       SAPI     H2X      HAL2     0.900000E-01   1.00800           0
      2034 MEMB     19       SAPI     H2Y      HAL2     0.900000E-01   1.00800           0
      2035 MEMB     19       SAPI     C23      CTL2    -0.180000       12.0110           0
      2036 MEMB     19       SAPI     H3R      HAL2     0.900000E-01   1.00800           0
      2037 MEMB     19       SAPI     H3S      HAL2     0.900000E-01   1.00800           0
      2038 MEMB     19       SAPI     C24      CTL2    -0.180000       12.0110           0
      2039 MEMB     19       SAPI     H4R      HAL2     0.900000E-01   1.00800           0
      2040 MEMB     19       SAPI     H4S      HAL2     0.900000E-01   1.00800           0
      2041 MEMB     19       SAPI     C25      CEL1    -0.150000       12.0110           0
      2042 MEMB     19       SAPI     H5R      HEL1     0.150000       1.00800           0
      2043 MEMB     19       SAPI     C26      CEL1    -0.150000       12.0110           0
      2044 MEMB     19       SAPI     H6R      HEL1     0.150000       1.00800           0
      2045 MEMB     19       SAPI     C27      CTL2    -0.180000       12.0110           0
      2046 MEMB     19       SAPI     H7R      HAL2     0.900000E-01   1.00800           0
      2047 MEMB     19       SAPI     H7S      HAL2     0.900000E-01   1.00800           0
      2048 MEMB     19       SAPI     C28      CEL1    -0.150000       12.0110           0
      2049 MEMB     19       SAPI     H8R      HEL1     0.150000       1.00800           0
      2050 MEMB     19       SAPI     C29      CEL1    -0.150000       12.0110           0
      2051 MEMB     19       SAPI     H9R      HEL1     0.150000       1.00800           0
      2052 MEMB     19       SAPI     C210     CTL2    -0.180000       12.0110           0
      2053 MEMB     19       SAPI     H10R     HAL2     0.900000E-01   1.00800           0
      2054 MEMB     19       SAPI     H10S     HAL2     0.900000E-01   1.00800           0
      2055 MEMB     19       SAPI     C211     CEL1    -0.150000       12.0110           0
      2056 MEMB     19       SAPI     H11R     HEL1     0.150000       1.00800           0
      2057 MEMB     19       SAPI     C212     CEL1    -0.150000       12.0110           0
      2058 MEMB     19       SAPI     H12R     HEL1     0.150000       1.00800           0
      2059 MEMB     19       SAPI     C213     CTL2    -0.180000       12.0110           0
      2060 MEMB     19       SAPI     H13R     HAL2     0.900000E-01   1.00800           0
      2061 MEMB     19       SAPI     H13S     HAL2     0.900000E-01   1.00800           0
      2062 MEMB     19       SAPI     C214     CEL1    -0.150000       12.0110           0
      2063 MEMB     19       SAPI     H14R     HEL1     0.150000       1.00800           0
      2064 MEMB     19       SAPI     C215     CEL1    -0.150000       12.0110           0
      2065 MEMB     19       SAPI     H15R     HEL1     0.150000       1.00800           0
      2066 MEMB     19       SAPI     C216     CTL2    -0.180000       12.0110           0
      2067 MEMB     19       SAPI     H16R     HAL2     0.900000E-01   1.00800           0
      2068 MEMB     19       SAPI     H16S     HAL2     0.900000E-01   1.00800           0
      2069 MEMB     19       SAPI     C217     CTL2    -0.180000       12.0110           0
      2070 MEMB     19       SAPI     H17R     HAL2     0.900000E-01   1.00800           0
      2071 MEMB     19       SAPI     H17S     HAL2     0.900000E-01   1.00800           0
      2072 MEMB     19       SAPI     C218     CTL2    -0.180000       12.0110           0
      2073 MEMB     19       SAPI     H18R     HAL2     0.900000E-01   1.00800           0
      2074 MEMB     19       SAPI     H18S     HAL2     0.900000E-01   1.00800           0
      2075 MEMB     19       SAPI     C219     CTL2    -0.180000       12.0110           0
      2076 MEMB     19       SAPI     H19R     HAL2     0.900000E-01   1.00800           0
      2077 MEMB     19       SAPI     H19S     HAL2     0.900000E-01   1.00800           0
      2078 MEMB     19       SAPI     C220     CTL3    -0.270000       12.0110           0
      2079 MEMB     19       SAPI     H20R     HAL3     0.900000E-01   1.00800           0
      2080 MEMB     19       SAPI     H20S     HAL3     0.900000E-01   1.00800           0
      2081 MEMB     19       SAPI     H20T     HAL3     0.900000E-01   1.00800           0
      2082 MEMB     19       SAPI     C33      CTL2    -0.180000       12.0110           0
      2083 MEMB     19       SAPI     H3X      HAL2     0.900000E-01   1.00800           0
      2084 MEMB     19       SAPI     H3Y      HAL2     0.900000E-01   1.00800           0
      2085 MEMB     19       SAPI     C34      CTL2    -0.180000       12.0110           0
      2086 MEMB     19       SAPI     H4X      HAL2     0.900000E-01   1.00800           0
      2087 MEMB     19       SAPI     H4Y      HAL2     0.900000E-01   1.00800           0
      2088 MEMB     19       SAPI     C35      CTL2    -0.180000       12.0110           0
      2089 MEMB     19       SAPI     H5X      HAL2     0.900000E-01   1.00800           0
      2090 MEMB     19       SAPI     H5Y      HAL2     0.900000E-01   1.00800           0
      2091 MEMB     19       SAPI     C36      CTL2    -0.180000       12.0110           0
      2092 MEMB     19       SAPI     H6X      HAL2     0.900000E-01   1.00800           0
      2093 MEMB     19       SAPI     H6Y      HAL2     0.900000E-01   1.00800           0
      2094 MEMB     19       SAPI     C37      CTL2    -0.180000       12.0110           0
      2095 MEMB     19       SAPI     H7X      HAL2     0.900000E-01   1.00800           0
      2096 MEMB     19       SAPI     H7Y      HAL2     0.900000E-01   1.00800           0
      2097 MEMB     19       SAPI     C38      CTL2    -0.180000       12.0110           0
      2098 MEMB     19       SAPI     H8X      HAL2     0.900000E-01   1.00800           0
      2099 MEMB     19       SAPI     H8Y      HAL2     0.900000E-01   1.00800           0
      2100 MEMB     19       SAPI     C39      CTL2    -0.180000       12.0110           0
      2101 MEMB     19       SAPI     H9X      HAL2     0.900000E-01   1.00800           0
      2102 MEMB     19       SAPI     H9Y      HAL2     0.900000E-01   1.00800           0
      2103 MEMB     19       SAPI     C310     CTL2    -0.180000       12.0110           0
      2104 MEMB     19       SAPI     H10X     HAL2     0.900000E-01   1.00800           0
      2105 MEMB     19       SAPI     H10Y     HAL2     0.900000E-01   1.00800           0
      2106 MEMB     19       SAPI     C311     CTL2    -0.180000       12.0110           0
      2107 MEMB     19       SAPI     H11X     HAL2     0.900000E-01   1.00800           0
      2108 MEMB     19       SAPI     H11Y     HAL2     0.900000E-01   1.00800           0
      2109 MEMB     19       SAPI     C312     CTL2    -0.180000       12.0110           0
      2110 MEMB     19       SAPI     H12X     HAL2     0.900000E-01   1.00800           0
      2111 MEMB     19       SAPI     H12Y     HAL2     0.900000E-01   1.00800           0
      2112 MEMB     19       SAPI     C313     CTL2    -0.180000       12.0110           0
      2113 MEMB     19       SAPI     H13X     HAL2     0.900000E-01   1.00800           0
      2114 MEMB     19       SAPI     H13Y     HAL2     0.900000E-01   1.00800           0
      2115 MEMB     19       SAPI     C314     CTL2    -0.180000       12.0110           0
      2116 MEMB     19       SAPI     H14X     HAL2     0.900000E-01   1.00800           0
      2117 MEMB     19       SAPI     H14Y     HAL2     0.900000E-01   1.00800           0
      2118 MEMB     19       SAPI     C315     CTL2    -0.180000       12.0110           0
      2119 MEMB     19       SAPI     H15X     HAL2     0.900000E-01   1.00800           0
      2120 MEMB     19       SAPI     H15Y     HAL2     0.900000E-01   1.00800           0
      2121 MEMB     19       SAPI     C316     CTL2    -0.180000       12.0110           0
      2122 MEMB     19       SAPI     H16X     HAL2     0.900000E-01   1.00800           0
      2123 MEMB     19       SAPI     H16Y     HAL2     0.900000E-01   1.00800           0
      2124 MEMB     19       SAPI     C317     CTL2    -0.180000       12.0110           0
      2125 MEMB     19       SAPI     H17X     HAL2     0.900000E-01   1.00800           0
      2126 MEMB     19       SAPI     H17Y     HAL2     0.900000E-01   1.00800           0
      2127 MEMB     19       SAPI     C318     CTL3    -0.270000       12.0110           0
      2128 MEMB     19       SAPI     H18X     HAL3     0.900000E-01   1.00800           0
      2129 MEMB     19       SAPI     H18Y     HAL3     0.900000E-01   1.00800           0
      2130 MEMB     19       SAPI     H18Z     HAL3     0.900000E-01   1.00800           0
      2131 MEMB     20       SAPE     N        NH3L    -0.300000       14.0070           0
      2132 MEMB     20       SAPE     HN1      HCL      0.330000       1.00800           0
      2133 MEMB     20       SAPE     HN2      HCL      0.330000       1.00800           0
      2134 MEMB     20       SAPE     HN3      HCL      0.330000       1.00800           0
      2135 MEMB     20       SAPE     C12      CTL2     0.130000       12.0110           0
      2136 MEMB     20       SAPE     H12A     HAL2     0.900000E-01   1.00800           0
      2137 MEMB     20       SAPE     H12B     HAL2     0.900000E-01   1.00800           0
      2138 MEMB     20       SAPE     C11      CTL2    -0.800000E-01   12.0110           0
      2139 MEMB     20       SAPE     H11A     HAL2     0.900000E-01   1.00800           0
      2140 MEMB     20       SAPE     H11B     HAL2     0.900000E-01   1.00800           0
      2141 MEMB     20       SAPE     P        PL        1.50000       30.9740           0
      2142 MEMB     20       SAPE     O13      O2L     -0.780000       15.9994           0
      2143 MEMB     20       SAPE     O14      O2L     -0.780000       15.9994           0
      2144 MEMB     20       SAPE     O12      OSLP    -0.570000       15.9994           0
      2145 MEMB     20       SAPE     O11      OSLP    -0.570000       15.9994           0
      2146 MEMB     20       SAPE     C1       CTL2    -0.800000E-01   12.0110           0
      2147 MEMB     20       SAPE     HA       HAL2     0.900000E-01   1.00800           0
      2148 MEMB     20       SAPE     HB       HAL2     0.900000E-01   1.00800           0
      2149 MEMB     20       SAPE     C2       CTL1     0.170000       12.0110           0
      2150 MEMB     20       SAPE     HS       HAL1     0.900000E-01   1.00800           0
      2151 MEMB     20       SAPE     O21      OSL     -0.490000       15.9994           0
      2152 MEMB     20       SAPE     C21      CL       0.900000       12.0110           0
      2153 MEMB     20       SAPE     O22      OBL     -0.630000       15.9994           0
      2154 MEMB     20       SAPE     C22      CTL2    -0.220000       12.0110           0
      2155 MEMB     20       SAPE     H2R      HAL2     0.900000E-01   1.00800           0
      2156 MEMB     20       SAPE     H2S      HAL2     0.900000E-01   1.00800           0
      2157 MEMB     20       SAPE     C3       CTL2     0.800000E-01   12.0110           0
      2158 MEMB     20       SAPE     HX       HAL2     0.900000E-01   1.00800           0
      2159 MEMB     20       SAPE     HY       HAL2     0.900000E-01   1.00800           0
      2160 MEMB     20       SAPE     O31      OSL     -0.490000       15.9994           0
      2161 MEMB     20       SAPE     C31      CL       0.900000       12.0110           0
      2162 MEMB     20       SAPE     O32      OBL     -0.630000       15.9994           0
      2163 MEMB     20       SAPE     C32      CTL2    -0.220000       12.0110           0
      2164 MEMB     20       SAPE     H2X      HAL2     0.900000E-01   1.00800           0
      2165 MEMB     20       SAPE     H2Y      HAL2     0.900000E-01   1.00800           0
      2166 MEMB     20       SAPE     C23      CTL2    -0.180000       12.0110           0
      2167 MEMB     20       SAPE     H3R      HAL2     0.900000E-01   1.00800           0
      2168 MEMB     20       SAPE     H3S      HAL2     0.900000E-01   1.00800           0
      2169 MEMB     20       SAPE     C24      CTL2    -0.180000       12.0110           0
      2170 MEMB     20       SAPE     H4R      HAL2     0.900000E-01   1.00800           0
      2171 MEMB     20       SAPE     H4S      HAL2     0.900000E-01   1.00800           0
      2172 MEMB     20       SAPE     C25      CEL1    -0.150000       12.0110           0
      2173 MEMB     20       SAPE     H5R      HEL1     0.150000       1.00800           0
      2174 MEMB     20       SAPE     C26      CEL1    -0.150000       12.0110           0
      2175 MEMB     20       SAPE     H6R      HEL1     0.150000       1.00800           0
      2176 MEMB     20       SAPE     C27      CTL2    -0.180000       12.0110           0
      2177 MEMB     20       SAPE     H7R      HAL2     0.900000E-01   1.00800           0
      2178 MEMB     20       SAPE     H7S      HAL2     0.900000E-01   1.00800           0
      2179 MEMB     20       SAPE     C28      CEL1    -0.150000       12.0110           0
      2180 MEMB     20       SAPE     H8R      HEL1     0.150000       1.00800           0
      2181 MEMB     20       SAPE     C29      CEL1    -0.150000       12.0110           0
      2182 MEMB     20       SAPE     H9R      HEL1     0.150000       1.00800           0
      2183 MEMB     20       SAPE     C210     CTL2    -0.180000       12.0110           0
      2184 MEMB     20       SAPE     H10R     HAL2     0.900000E-01   1.00800           0
      2185 MEMB     20       SAPE     H10S     HAL2     0.900000E-01   1.00800           0
      2186 MEMB     20       SAPE     C211     CEL1    -0.150000       12.0110           0
      2187 MEMB     20       SAPE     H11R     HEL1     0.150000       1.00800           0
      2188 MEMB     20       SAPE     C212     CEL1    -0.150000       12.0110           0
      2189 MEMB     20       SAPE     H12R     HEL1     0.150000       1.00800           0
      2190 MEMB     20       SAPE     C213     CTL2    -0.180000       12.0110           0
      2191 MEMB     20       SAPE     H13R     HAL2     0.900000E-01   1.00800           0
      2192 MEMB     20       SAPE     H13S     HAL2     0.900000E-01   1.00800           0
      2193 MEMB     20       SAPE     C214     CEL1    -0.150000       12.0110           0
      2194 MEMB     20       SAPE     H14R     HEL1     0.150000       1.00800           0
      2195 MEMB     20       SAPE     C215     CEL1    -0.150000       12.0110           0
      2196 MEMB     20       SAPE     H15R     HEL1     0.150000       1.00800           0
      2197 MEMB     20       SAPE     C216     CTL2    -0.180000       12.0110           0
      2198 MEMB     20       SAPE     H16R     HAL2     0.900000E-01   1.00800           0
      2199 MEMB     20       SAPE     H16S     HAL2     0.900000E-01   1.00800           0
      2200 MEMB     20       SAPE     C217     CTL2    -0.180000       12.0110           0
      2201 MEMB     20       SAPE     H17R     HAL2     0.900000E-01   1.00800           0
      2202 MEMB     20       SAPE     H17S     HAL2     0.900000E-01   1.00800           0
      2203 MEMB     20       SAPE     C218     CTL2    -0.180000       12.0110           0
      2204 MEMB     20       SAPE     H18R     HAL2     0.900000E-01   1.00800           0
      2205 MEMB     20       SAPE     H18S     HAL2     0.900000E-01   1.00800           0
      2206 MEMB     20       SAPE     C219     CTL2    -0.180000       12.0110           0
      2207 MEMB     20       SAPE     H19R     HAL2     0.900000E-01   1.00800           0
      2208 MEMB     20       SAPE     H19S     HAL2     0.900000E-01   1.00800           0
      2209 MEMB     20       SAPE     C220     CTL3    -0.270000       12.0110           0
      2210 MEMB     20       SAPE     H20R     HAL3     0.900000E-01   1.00800           0
      2211 MEMB     20       SAPE     H20S     HAL3     0.900000E-01   1.00800           0
      2212 MEMB     20       SAPE     H20T     HAL3     0.900000E-01   1.00800           0
      2213 MEMB     20       SAPE     C33      CTL2    -0.180000       12.0110           0
      2214 MEMB     20       SAPE     H3X      HAL2     0.900000E-01   1.00800           0
      2215 MEMB     20       SAPE     H3Y      HAL2     0.900000E-01   1.00800           0
      2216 MEMB     20       SAPE     C34      CTL2    -0.180000       12.0110           0
      2217 MEMB     20       SAPE     H4X      HAL2     0.900000E-01   1.00800           0
      2218 MEMB     20       SAPE     H4Y      HAL2     0.900000E-01   1.00800           0
      2219 MEMB     20       SAPE     C35      CTL2    -0.180000       12.0110           0
      2220 MEMB     20       SAPE     H5X      HAL2     0.900000E-01   1.00800           0
      2221 MEMB     20       SAPE     H5Y      HAL2     0.900000E-01   1.00800           0
      2222 MEMB     20       SAPE     C36      CTL2    -0.180000       12.0110           0
      2223 MEMB     20       SAPE     H6X      HAL2     0.900000E-01   1.00800           0
      2224 MEMB     20       SAPE     H6Y      HAL2     0.900000E-01   1.00800           0
      2225 MEMB     20       SAPE     C37      CTL2    -0.180000       12.0110           0
      2226 MEMB     20       SAPE     H7X      HAL2     0.900000E-01   1.00800           0
      2227 MEMB     20       SAPE     H7Y      HAL2     0.900000E-01   1.00800           0
      2228 MEMB     20       SAPE     C38      CTL2    -0.180000       12.0110           0
      2229 MEMB     20       SAPE     H8X      HAL2     0.900000E-01   1.00800           0
      2230 MEMB     20       SAPE     H8Y      HAL2     0.900000E-01   1.00800           0
      2231 MEMB     20       SAPE     C39      CTL2    -0.180000       12.0110           0
      2232 MEMB     20       SAPE     H9X      HAL2     0.900000E-01   1.00800           0
      2233 MEMB     20       SAPE     H9Y      HAL2     0.900000E-01   1.00800           0
      2234 MEMB     20       SAPE     C310     CTL2    -0.180000       12.0110           0
      2235 MEMB     20       SAPE     H10X     HAL2     0.900000E-01   1.00800           0
      2236 MEMB     20       SAPE     H10Y     HAL2     0.900000E-01   1.00800           0
      2237 MEMB     20       SAPE     C311     CTL2    -0.180000       12.0110           0
      2238 MEMB     20       SAPE     H11X     HAL2     0.900000E-01   1.00800           0
      2239 MEMB     20       SAPE     H11Y     HAL2     0.900000E-01   1.00800           0
      2240 MEMB     20       SAPE     C312     CTL2    -0.180000       12.0110           0
      2241 MEMB     20       SAPE     H12X     HAL2     0.900000E-01   1.00800           0
      2242 MEMB     20       SAPE     H12Y     HAL2     0.900000E-01   1.00800           0
      2243 MEMB     20       SAPE     C313     CTL2    -0.180000       12.0110           0
      2244 MEMB     20       SAPE     H13X     HAL2     0.900000E-01   1.00800           0
      2245 MEMB     20       SAPE     H13Y     HAL2     0.900000E-01   1.00800           0
      2246 MEMB     20       SAPE     C314     CTL2    -0.180000       12.0110           0
      2247 MEMB     20       SAPE     H14X     HAL2     0.900000E-01   1.00800           0
      2248 MEMB     20       SAPE     H14Y     HAL2     0.900000E-01   1.00800           0
      2249 MEMB     20       SAPE     C315     CTL2    -0.180000       12.0110           0
      2250 MEMB     20       SAPE     H15X     HAL2     0.900000E-01   1.00800           0
      2251 MEMB     20       SAPE     H15Y     HAL2     0.900000E-01   1.00800           0
      2252 MEMB     20       SAPE     C316     CTL2    -0.180000       12.0110           0
      2253 MEMB     20       SAPE     H16X     HAL2     0.900000E-01   1.00800           0
      2254 MEMB     20       SAPE     H16Y     HAL2     0.900000E-01   1.00800           0
      2255 MEMB     20       SAPE     C317     CTL2    -0.180000       12.0110           0
      2256 MEMB     20       SAPE     H17X     HAL2     0.900000E-01   1.00800           0
      2257 MEMB     20       SAPE     H17Y     HAL2     0.900000E-01   1.00800           0
      2258 MEMB     20       SAPE     C318     CTL3    -0.270000       12.0110           0
      2259 MEMB     20       SAPE     H18X     HAL3     0.900000E-01   1.00800           0
      2260 MEMB     20       SAPE     H18Y     HAL3     0.900000E-01   1.00800           0
      2261 MEMB     20       SAPE     H18Z     HAL3     0.900000E-01   1.00800           0
      2262 MEMB     21       CHL1     C3       CRL1     0.140000       12.0110           0
      2263 MEMB     21       CHL1     H3       HGA1     0.900000E-01   1.00800           0
      2264 MEMB     21       CHL1     O3       OHL     -0.660000       15.9994           0
      2265 MEMB     21       CHL1     H3'      HOL      0.430000       1.00800           0
      2266 MEMB     21       CHL1     C4       CRL2    -0.180000       12.0110           0
      2267 MEMB     21       CHL1     H4A      HGA2     0.900000E-01   1.00800           0
      2268 MEMB     21       CHL1     H4B      HGA2     0.900000E-01   1.00800           0
      2269 MEMB     21       CHL1     C5       CEL1      0.00000       12.0110           0
      2270 MEMB     21       CHL1     C6       CEL1    -0.150000       12.0110           0
      2271 MEMB     21       CHL1     H6       HEL1     0.150000       1.00800           0
      2272 MEMB     21       CHL1     C7       CRL2    -0.180000       12.0110           0
      2273 MEMB     21       CHL1     H7A      HGA2     0.900000E-01   1.00800           0
      2274 MEMB     21       CHL1     H7B      HGA2     0.900000E-01   1.00800           0
      2275 MEMB     21       CHL1     C8       CRL1    -0.900000E-01   12.0110           0
      2276 MEMB     21       CHL1     H8       HGA1     0.900000E-01   1.00800           0
      2277 MEMB     21       CHL1     C14      CRL1    -0.900000E-01   12.0110           0
      2278 MEMB     21       CHL1     H14      HGA1     0.900000E-01   1.00800           0
      2279 MEMB     21       CHL1     C15      CRL2    -0.180000       12.0110           0
      2280 MEMB     21       CHL1     H15A     HGA2     0.900000E-01   1.00800           0
      2281 MEMB     21       CHL1     H15B     HGA2     0.900000E-01   1.00800           0
      2282 MEMB     21       CHL1     C16      CRL2    -0.180000       12.0110           0
      2283 MEMB     21       CHL1     H16A     HGA2     0.900000E-01   1.00800           0
      2284 MEMB     21       CHL1     H16B     HGA2     0.900000E-01   1.00800           0
      2285 MEMB     21       CHL1     C17      CRL1    -0.900000E-01   12.0110           0
      2286 MEMB     21       CHL1     H17      HGA1     0.900000E-01   1.00800           0
      2287 MEMB     21       CHL1     C13      CRL1      0.00000       12.0110           0
      2288 MEMB     21       CHL1     C18      CTL3    -0.270000       12.0110           0
      2289 MEMB     21       CHL1     H18A     HAL3     0.900000E-01   1.00800           0
      2290 MEMB     21       CHL1     H18B     HAL3     0.900000E-01   1.00800           0
      2291 MEMB     21       CHL1     H18C     HAL3     0.900000E-01   1.00800           0
      2292 MEMB     21       CHL1     C12      CRL2    -0.180000       12.0110           0
      2293 MEMB     21       CHL1     H12A     HGA2     0.900000E-01   1.00800           0
      2294 MEMB     21       CHL1     H12B     HGA2     0.900000E-01   1.00800           0
      2295 MEMB     21       CHL1     C11      CRL2    -0.180000       12.0110           0
      2296 MEMB     21       CHL1     H11A     HGA2     0.900000E-01   1.00800           0
      2297 MEMB     21       CHL1     H11B     HGA2     0.900000E-01   1.00800           0
      2298 MEMB     21       CHL1     C9       CRL1    -0.900000E-01   12.0110           0
      2299 MEMB     21       CHL1     H9       HGA1     0.900000E-01   1.00800           0
      2300 MEMB     21       CHL1     C10      CRL1      0.00000       12.0110           0
      2301 MEMB     21       CHL1     C19      CTL3    -0.270000       12.0110           0
      2302 MEMB     21       CHL1     H19A     HAL3     0.900000E-01   1.00800           0
      2303 MEMB     21       CHL1     H19B     HAL3     0.900000E-01   1.00800           0
      2304 MEMB     21       CHL1     H19C     HAL3     0.900000E-01   1.00800           0
      2305 MEMB     21       CHL1     C1       CRL2    -0.180000       12.0110           0
      2306 MEMB     21       CHL1     H1A      HGA2     0.900000E-01   1.00800           0
      2307 MEMB     21       CHL1     H1B      HGA2     0.900000E-01   1.00800           0
      2308 MEMB     21       CHL1     C2       CRL2    -0.180000       12.0110           0
      2309 MEMB     21       CHL1     H2A      HGA2     0.900000E-01   1.00800           0
      2310 MEMB     21       CHL1     H2B      HGA2     0.900000E-01   1.00800           0
      2311 MEMB     21       CHL1     C20      CTL1    -0.900000E-01   12.0110           0
      2312 MEMB     21       CHL1     H20      HAL1     0.900000E-01   1.00800           0
      2313 MEMB     21       CHL1     C21      CTL3    -0.270000       12.0110           0
      2314 MEMB     21       CHL1     H21A     HAL3     0.900000E-01   1.00800           0
      2315 MEMB     21       CHL1     H21B     HAL3     0.900000E-01   1.00800           0
      2316 MEMB     21       CHL1     H21C     HAL3     0.900000E-01   1.00800           0
      2317 MEMB     21       CHL1     C22      CTL2    -0.180000       12.0110           0
      2318 MEMB     21       CHL1     H22A     HAL2     0.900000E-01   1.00800           0
      2319 MEMB     21       CHL1     H22B     HAL2     0.900000E-01   1.00800           0
      2320 MEMB     21       CHL1     C23      CTL2    -0.180000       12.0110           0
      2321 MEMB     21       CHL1     H23A     HAL2     0.900000E-01   1.00800           0
      2322 MEMB     21       CHL1     H23B     HAL2     0.900000E-01   1.00800           0
      2323 MEMB     21       CHL1     C24      CTL2    -0.180000       12.0110           0
      2324 MEMB     21       CHL1     H24A     HAL2     0.900000E-01   1.00800           0
      2325 MEMB     21       CHL1     H24B     HAL2     0.900000E-01   1.00800           0
      2326 MEMB     21       CHL1     C25      CTL1    -0.900000E-01   12.0110           0
      2327 MEMB     21       CHL1     H25      HAL1     0.900000E-01   1.00800           0
      2328 MEMB     21       CHL1     C26      CTL3    -0.270000       12.0110           0
      2329 MEMB     21       CHL1     H26A     HAL3     0.900000E-01   1.00800           0
      2330 MEMB     21       CHL1     H26B     HAL3     0.900000E-01   1.00800           0
      2331 MEMB     21       CHL1     H26C     HAL3     0.900000E-01   1.00800           0
      2332 MEMB     21       CHL1     C27      CTL3    -0.270000       12.0110           0
      2333 MEMB     21       CHL1     H27A     HAL3     0.900000E-01   1.00800           0
      2334 MEMB     21       CHL1     H27B     HAL3     0.900000E-01   1.00800           0
      2335 MEMB     21       CHL1     H27C     HAL3     0.900000E-01   1.00800           0
      2336 MEMB     22       SAPE     N        NH3L    -0.300000       14.0070           0
      2337 MEMB     22       SAPE     HN1      HCL      0.330000       1.00800           0
      2338 MEMB     22       SAPE     HN2      HCL      0.330000       1.00800           0
      2339 MEMB     22       SAPE     HN3      HCL      0.330000       1.00800           0
      2340 MEMB     22       SAPE     C12      CTL2     0.130000       12.0110           0
      2341 MEMB     22       SAPE     H12A     HAL2     0.900000E-01   1.00800           0
      2342 MEMB     22       SAPE     H12B     HAL2     0.900000E-01   1.00800           0
      2343 MEMB     22       SAPE     C11      CTL2    -0.800000E-01   12.0110           0
      2344 MEMB     22       SAPE     H11A     HAL2     0.900000E-01   1.00800           0
      2345 MEMB     22       SAPE     H11B     HAL2     0.900000E-01   1.00800           0
      2346 MEMB     22       SAPE     P        PL        1.50000       30.9740           0
      2347 MEMB     22       SAPE     O13      O2L     -0.780000       15.9994           0
      2348 MEMB     22       SAPE     O14      O2L     -0.780000       15.9994           0
      2349 MEMB     22       SAPE     O12      OSLP    -0.570000       15.9994           0
      2350 MEMB     22       SAPE     O11      OSLP    -0.570000       15.9994           0
      2351 MEMB     22       SAPE     C1       CTL2    -0.800000E-01   12.0110           0
      2352 MEMB     22       SAPE     HA       HAL2     0.900000E-01   1.00800           0
      2353 MEMB     22       SAPE     HB       HAL2     0.900000E-01   1.00800           0
      2354 MEMB     22       SAPE     C2       CTL1     0.170000       12.0110           0
      2355 MEMB     22       SAPE     HS       HAL1     0.900000E-01   1.00800           0
      2356 MEMB     22       SAPE     O21      OSL     -0.490000       15.9994           0
      2357 MEMB     22       SAPE     C21      CL       0.900000       12.0110           0
      2358 MEMB     22       SAPE     O22      OBL     -0.630000       15.9994           0
      2359 MEMB     22       SAPE     C22      CTL2    -0.220000       12.0110           0
      2360 MEMB     22       SAPE     H2R      HAL2     0.900000E-01   1.00800           0
      2361 MEMB     22       SAPE     H2S      HAL2     0.900000E-01   1.00800           0
      2362 MEMB     22       SAPE     C3       CTL2     0.800000E-01   12.0110           0
      2363 MEMB     22       SAPE     HX       HAL2     0.900000E-01   1.00800           0
      2364 MEMB     22       SAPE     HY       HAL2     0.900000E-01   1.00800           0
      2365 MEMB     22       SAPE     O31      OSL     -0.490000       15.9994           0
      2366 MEMB     22       SAPE     C31      CL       0.900000       12.0110           0
      2367 MEMB     22       SAPE     O32      OBL     -0.630000       15.9994           0
      2368 MEMB     22       SAPE     C32      CTL2    -0.220000       12.0110           0
      2369 MEMB     22       SAPE     H2X      HAL2     0.900000E-01   1.00800           0
      2370 MEMB     22       SAPE     H2Y      HAL2     0.900000E-01   1.00800           0
      2371 MEMB     22       SAPE     C23      CTL2    -0.180000       12.0110           0
      2372 MEMB     22       SAPE     H3R      HAL2     0.900000E-01   1.00800           0
      2373 MEMB     22       SAPE     H3S      HAL2     0.900000E-01   1.00800           0
      2374 MEMB     22       SAPE     C24      CTL2    -0.180000       12.0110           0
      2375 MEMB     22       SAPE     H4R      HAL2     0.900000E-01   1.00800           0
      2376 MEMB     22       SAPE     H4S      HAL2     0.900000E-01   1.00800           0
      2377 MEMB     22       SAPE     C25      CEL1    -0.150000       12.0110           0
      2378 MEMB     22       SAPE     H5R      HEL1     0.150000       1.00800           0
      2379 MEMB     22       SAPE     C26      CEL1    -0.150000       12.0110           0
      2380 MEMB     22       SAPE     H6R      HEL1     0.150000       1.00800           0
      2381 MEMB     22       SAPE     C27      CTL2    -0.180000       12.0110           0
      2382 MEMB     22       SAPE     H7R      HAL2     0.900000E-01   1.00800           0
      2383 MEMB     22       SAPE     H7S      HAL2     0.900000E-01   1.00800           0
      2384 MEMB     22       SAPE     C28      CEL1    -0.150000       12.0110           0
      2385 MEMB     22       SAPE     H8R      HEL1     0.150000       1.00800           0
      2386 MEMB     22       SAPE     C29      CEL1    -0.150000       12.0110           0
      2387 MEMB     22       SAPE     H9R      HEL1     0.150000       1.00800           0
      2388 MEMB     22       SAPE     C210     CTL2    -0.180000       12.0110           0
      2389 MEMB     22       SAPE     H10R     HAL2     0.900000E-01   1.00800           0
      2390 MEMB     22       SAPE     H10S     HAL2     0.900000E-01   1.00800           0
      2391 MEMB     22       SAPE     C211     CEL1    -0.150000       12.0110           0
      2392 MEMB     22       SAPE     H11R     HEL1     0.150000       1.00800           0
      2393 MEMB     22       SAPE     C212     CEL1    -0.150000       12.0110           0
      2394 MEMB     22       SAPE     H12R     HEL1     0.150000       1.00800           0
      2395 MEMB     22       SAPE     C213     CTL2    -0.180000       12.0110           0
      2396 MEMB     22       SAPE     H13R     HAL2     0.900000E-01   1.00800           0
      2397 MEMB     22       SAPE     H13S     HAL2     0.900000E-01   1.00800           0
      2398 MEMB     22       SAPE     C214     CEL1    -0.150000       12.0110           0
      2399 MEMB     22       SAPE     H14R     HEL1     0.150000       1.00800           0
      2400 MEMB     22       SAPE     C215     CEL1    -0.150000       12.0110           0
      2401 MEMB     22       SAPE     H15R     HEL1     0.150000       1.00800           0
      2402 MEMB     22       SAPE     C216     CTL2    -0.180000       12.0110           0
      2403 MEMB     22       SAPE     H16R     HAL2     0.900000E-01   1.00800           0
      2404 MEMB     22       SAPE     H16S     HAL2     0.900000E-01   1.00800           0
      2405 MEMB     22       SAPE     C217     CTL2    -0.180000       12.0110           0
      2406 MEMB     22       SAPE     H17R     HAL2     0.900000E-01   1.00800           0
      2407 MEMB     22       SAPE     H17S     HAL2     0.900000E-01   1.00800           0
      2408 MEMB     22       SAPE     C218     CTL2    -0.180000       12.0110           0
      2409 MEMB     22       SAPE     H18R     HAL2     0.900000E-01   1.00800           0
      2410 MEMB     22       SAPE     H18S     HAL2     0.900000E-01   1.00800           0
      2411 MEMB     22       SAPE     C219     CTL2    -0.180000       12.0110           0
      2412 MEMB     22       SAPE     H19R     HAL2     0.900000E-01   1.00800           0
      2413 MEMB     22       SAPE     H19S     HAL2     0.900000E-01   1.00800           0
      2414 MEMB     22       SAPE     C220     CTL3    -0.270000       12.0110           0
      2415 MEMB     22       SAPE     H20R     HAL3     0.900000E-01   1.00800           0
      2416 MEMB     22       SAPE     H20S     HAL3     0.900000E-01   1.00800           0
      2417 MEMB     22       SAPE     H20T     HAL3     0.900000E-01   1.00800           0
      2418 MEMB     22       SAPE     C33      CTL2    -0.180000       12.0110           0
      2419 MEMB     22       SAPE     H3X      HAL2     0.900000E-01   1.00800           0
      2420 MEMB     22       SAPE     H3Y      HAL2     0.900000E-01   1.00800           0
      2421 MEMB     22       SAPE     C34      CTL2    -0.180000       12.0110           0
      2422 MEMB     22       SAPE     H4X      HAL2     0.900000E-01   1.00800           0
      2423 MEMB     22       SAPE     H4Y      HAL2     0.900000E-01   1.00800           0
      2424 MEMB     22       SAPE     C35      CTL2    -0.180000       12.0110           0
      2425 MEMB     22       SAPE     H5X      HAL2     0.900000E-01   1.00800           0
      2426 MEMB     22       SAPE     H5Y      HAL2     0.900000E-01   1.00800           0
      2427 MEMB     22       SAPE     C36      CTL2    -0.180000       12.0110           0
      2428 MEMB     22       SAPE     H6X      HAL2     0.900000E-01   1.00800           0
      2429 MEMB     22       SAPE     H6Y      HAL2     0.900000E-01   1.00800           0
      2430 MEMB     22       SAPE     C37      CTL2    -0.180000       12.0110           0
      2431 MEMB     22       SAPE     H7X      HAL2     0.900000E-01   1.00800           0
      2432 MEMB     22       SAPE     H7Y      HAL2     0.900000E-01   1.00800           0
      2433 MEMB     22       SAPE     C38      CTL2    -0.180000       12.0110           0
      2434 MEMB     22       SAPE     H8X      HAL2     0.900000E-01   1.00800           0
      2435 MEMB     22       SAPE     H8Y      HAL2     0.900000E-01   1.00800           0
      2436 MEMB     22       SAPE     C39      CTL2    -0.180000       12.0110           0
      2437 MEMB     22       SAPE     H9X      HAL2     0.900000E-01   1.00800           0
      2438 MEMB     22       SAPE     H9Y      HAL2     0.900000E-01   1.00800           0
      2439 MEMB     22       SAPE     C310     CTL2    -0.180000       12.0110           0
      2440 MEMB     22       SAPE     H10X     HAL2     0.900000E-01   1.00800           0
      2441 MEMB     22       SAPE     H10Y     HAL2     0.900000E-01   1.00800           0
      2442 MEMB     22       SAPE     C311     CTL2    -0.180000       12.0110           0
      2443 MEMB     22       SAPE     H11X     HAL2     0.900000E-01   1.00800           0
      2444 MEMB     22       SAPE     H11Y     HAL2     0.900000E-01   1.00800           0
      2445 MEMB     22       SAPE     C312     CTL2    -0.180000       12.0110           0
      2446 MEMB     22       SAPE     H12X     HAL2     0.900000E-01   1.00800           0
      2447 MEMB     22       SAPE     H12Y     HAL2     0.900000E-01   1.00800           0
      2448 MEMB     22       SAPE     C313     CTL2    -0.180000       12.0110           0
      2449 MEMB     22       SAPE     H13X     HAL2     0.900000E-01   1.00800           0
      2450 MEMB     22       SAPE     H13Y     HAL2     0.900000E-01   1.00800           0
      2451 MEMB     22       SAPE     C314     CTL2    -0.180000       12.0110           0
      2452 MEMB     22       SAPE     H14X     HAL2     0.900000E-01   1.00800           0
      2453 MEMB     22       SAPE     H14Y     HAL2     0.900000E-01   1.00800           0
      2454 MEMB     22       SAPE     C315     CTL2    -0.180000       12.0110           0
      2455 MEMB     22       SAPE     H15X     HAL2     0.900000E-01   1.00800           0
      2456 MEMB     22       SAPE     H15Y     HAL2     0.900000E-01   1.00800           0
      2457 MEMB     22       SAPE     C316     CTL2    -0.180000       12.0110           0
      2458 MEMB     22       SAPE     H16X     HAL2     0.900000E-01   1.00800           0
      2459 MEMB     22       SAPE     H16Y     HAL2     0.900000E-01   1.00800           0
      2460 MEMB     22       SAPE     C317     CTL2    -0.180000       12.0110           0
      2461 MEMB     22       SAPE     H17X     HAL2     0.900000E-01   1.00800           0
      2462 MEMB     22       SAPE     H17Y     HAL2     0.900000E-01   1.00800           0
      2463 MEMB     22       SAPE     C318     CTL3    -0.270000       12.0110           0
      2464 MEMB     22       SAPE     H18X     HAL3     0.900000E-01   1.00800           0
      2465 MEMB     22       SAPE     H18Y     HAL3     0.900000E-01   1.00800           0
      2466 MEMB     22       SAPE     H18Z     HAL3     0.900000E-01   1.00800           0
      2467 MEMB     23       SLPC     N        NTL     -0.600000       14.0070           0
      2468 MEMB     23       SLPC     C13      CTL5    -0.350000       12.0110           0
      2469 MEMB     23       SLPC     H13A     HL       0.250000       1.00800           0
      2470 MEMB     23       SLPC     H13B     HL       0.250000       1.00800           0
      2471 MEMB     23       SLPC     H13C     HL       0.250000       1.00800           0
      2472 MEMB     23       SLPC     C14      CTL5    -0.350000       12.0110           0
      2473 MEMB     23       SLPC     H14A     HL       0.250000       1.00800           0
      2474 MEMB     23       SLPC     H14B     HL       0.250000       1.00800           0
      2475 MEMB     23       SLPC     H14C     HL       0.250000       1.00800           0
      2476 MEMB     23       SLPC     C15      CTL5    -0.350000       12.0110           0
      2477 MEMB     23       SLPC     H15A     HL       0.250000       1.00800           0
      2478 MEMB     23       SLPC     H15B     HL       0.250000       1.00800           0
      2479 MEMB     23       SLPC     H15C     HL       0.250000       1.00800           0
      2480 MEMB     23       SLPC     C12      CTL2    -0.100000       12.0110           0
      2481 MEMB     23       SLPC     H12A     HL       0.250000       1.00800           0
      2482 MEMB     23       SLPC     H12B     HL       0.250000       1.00800           0
      2483 MEMB     23       SLPC     C11      CTL2    -0.800000E-01   12.0110           0
      2484 MEMB     23       SLPC     H11A     HAL2     0.900000E-01   1.00800           0
      2485 MEMB     23       SLPC     H11B     HAL2     0.900000E-01   1.00800           0
      2486 MEMB     23       SLPC     P        PL        1.50000       30.9740           0
      2487 MEMB     23       SLPC     O13      O2L     -0.780000       15.9994           0
      2488 MEMB     23       SLPC     O14      O2L     -0.780000       15.9994           0
      2489 MEMB     23       SLPC     O12      OSLP    -0.570000       15.9994           0
      2490 MEMB     23       SLPC     O11      OSLP    -0.570000       15.9994           0
      2491 MEMB     23       SLPC     C1       CTL2    -0.800000E-01   12.0110           0
      2492 MEMB     23       SLPC     HA       HAL2     0.900000E-01   1.00800           0
      2493 MEMB     23       SLPC     HB       HAL2     0.900000E-01   1.00800           0
      2494 MEMB     23       SLPC     C2       CTL1     0.170000       12.0110           0
      2495 MEMB     23       SLPC     HS       HAL1     0.900000E-01   1.00800           0
      2496 MEMB     23       SLPC     O21      OSL     -0.490000       15.9994           0
      2497 MEMB     23       SLPC     C21      CL       0.900000       12.0110           0
      2498 MEMB     23       SLPC     O22      OBL     -0.630000       15.9994           0
      2499 MEMB     23       SLPC     C22      CTL2    -0.220000       12.0110           0
      2500 MEMB     23       SLPC     H2R      HAL2     0.900000E-01   1.00800           0
      2501 MEMB     23       SLPC     H2S      HAL2     0.900000E-01   1.00800           0
      2502 MEMB     23       SLPC     C3       CTL2     0.800000E-01   12.0110           0
      2503 MEMB     23       SLPC     HX       HAL2     0.900000E-01   1.00800           0
      2504 MEMB     23       SLPC     HY       HAL2     0.900000E-01   1.00800           0
      2505 MEMB     23       SLPC     O31      OSL     -0.490000       15.9994           0
      2506 MEMB     23       SLPC     C31      CL       0.900000       12.0110           0
      2507 MEMB     23       SLPC     O32      OBL     -0.630000       15.9994           0
      2508 MEMB     23       SLPC     C32      CTL2    -0.220000       12.0110           0
      2509 MEMB     23       SLPC     H2X      HAL2     0.900000E-01   1.00800           0
      2510 MEMB     23       SLPC     H2Y      HAL2     0.900000E-01   1.00800           0
      2511 MEMB     23       SLPC     C23      CTL2    -0.180000       12.0110           0
      2512 MEMB     23       SLPC     H3R      HAL2     0.900000E-01   1.00800           0
      2513 MEMB     23       SLPC     H3S      HAL2     0.900000E-01   1.00800           0
      2514 MEMB     23       SLPC     C24      CTL2    -0.180000       12.0110           0
      2515 MEMB     23       SLPC     H4R      HAL2     0.900000E-01   1.00800           0
      2516 MEMB     23       SLPC     H4S      HAL2     0.900000E-01   1.00800           0
      2517 MEMB     23       SLPC     C25      CTL2    -0.180000       12.0110           0
      2518 MEMB     23       SLPC     H5R      HAL2     0.900000E-01   1.00800           0
      2519 MEMB     23       SLPC     H5S      HAL2     0.900000E-01   1.00800           0
      2520 MEMB     23       SLPC     C26      CTL2    -0.180000       12.0110           0
      2521 MEMB     23       SLPC     H6R      HAL2     0.900000E-01   1.00800           0
      2522 MEMB     23       SLPC     H6S      HAL2     0.900000E-01   1.00800           0
      2523 MEMB     23       SLPC     C27      CTL2    -0.180000       12.0110           0
      2524 MEMB     23       SLPC     H7R      HAL2     0.900000E-01   1.00800           0
      2525 MEMB     23       SLPC     H7S      HAL2     0.900000E-01   1.00800           0
      2526 MEMB     23       SLPC     C28      CTL2    -0.180000       12.0110           0
      2527 MEMB     23       SLPC     H8R      HAL2     0.900000E-01   1.00800           0
      2528 MEMB     23       SLPC     H8S      HAL2     0.900000E-01   1.00800           0
      2529 MEMB     23       SLPC     C29      CEL1    -0.150000       12.0110           0
      2530 MEMB     23       SLPC     H9R      HEL1     0.150000       1.00800           0
      2531 MEMB     23       SLPC     C210     CEL1    -0.150000       12.0110           0
      2532 MEMB     23       SLPC     H10R     HEL1     0.150000       1.00800           0
      2533 MEMB     23       SLPC     C211     CTL2    -0.180000       12.0110           0
      2534 MEMB     23       SLPC     H11R     HAL2     0.900000E-01   1.00800           0
      2535 MEMB     23       SLPC     H11S     HAL2     0.900000E-01   1.00800           0
      2536 MEMB     23       SLPC     C212     CEL1    -0.150000       12.0110           0
      2537 MEMB     23       SLPC     H12R     HEL1     0.150000       1.00800           0
      2538 MEMB     23       SLPC     C213     CEL1    -0.150000       12.0110           0
      2539 MEMB     23       SLPC     H13R     HEL1     0.150000       1.00800           0
      2540 MEMB     23       SLPC     C214     CTL2    -0.180000       12.0110           0
      2541 MEMB     23       SLPC     H14R     HAL2     0.900000E-01   1.00800           0
      2542 MEMB     23       SLPC     H14S     HAL2     0.900000E-01   1.00800           0
      2543 MEMB     23       SLPC     C215     CTL2    -0.180000       12.0110           0
      2544 MEMB     23       SLPC     H15R     HAL2     0.900000E-01   1.00800           0
      2545 MEMB     23       SLPC     H15S     HAL2     0.900000E-01   1.00800           0
      2546 MEMB     23       SLPC     C216     CTL2    -0.180000       12.0110           0
      2547 MEMB     23       SLPC     H16R     HAL2     0.900000E-01   1.00800           0
      2548 MEMB     23       SLPC     H16S     HAL2     0.900000E-01   1.00800           0
      2549 MEMB     23       SLPC     C217     CTL2    -0.180000       12.0110           0
      2550 MEMB     23       SLPC     H17R     HAL2     0.900000E-01   1.00800           0
      2551 MEMB     23       SLPC     H17S     HAL2     0.900000E-01   1.00800           0
      2552 MEMB     23       SLPC     C218     CTL3    -0.270000       12.0110           0
      2553 MEMB     23       SLPC     H18R     HAL3     0.900000E-01   1.00800           0
      2554 MEMB     23       SLPC     H18S     HAL3     0.900000E-01   1.00800           0
      2555 MEMB     23       SLPC     H18T     HAL3     0.900000E-01   1.00800           0
      2556 MEMB     23       SLPC     C33      CTL2    -0.180000       12.0110           0
      2557 MEMB     23       SLPC     H3X      HAL2     0.900000E-01   1.00800           0
      2558 MEMB     23       SLPC     H3Y      HAL2     0.900000E-01   1.00800           0
      2559 MEMB     23       SLPC     C34      CTL2    -0.180000       12.0110           0
      2560 MEMB     23       SLPC     H4X      HAL2     0.900000E-01   1.00800           0
      2561 MEMB     23       SLPC     H4Y      HAL2     0.900000E-01   1.00800           0
      2562 MEMB     23       SLPC     C35      CTL2    -0.180000       12.0110           0
      2563 MEMB     23       SLPC     H5X      HAL2     0.900000E-01   1.00800           0
      2564 MEMB     23       SLPC     H5Y      HAL2     0.900000E-01   1.00800           0
      2565 MEMB     23       SLPC     C36      CTL2    -0.180000       12.0110           0
      2566 MEMB     23       SLPC     H6X      HAL2     0.900000E-01   1.00800           0
      2567 MEMB     23       SLPC     H6Y      HAL2     0.900000E-01   1.00800           0
      2568 MEMB     23       SLPC     C37      CTL2    -0.180000       12.0110           0
      2569 MEMB     23       SLPC     H7X      HAL2     0.900000E-01   1.00800           0
      2570 MEMB     23       SLPC     H7Y      HAL2     0.900000E-01   1.00800           0
      2571 MEMB     23       SLPC     C38      CTL2    -0.180000       12.0110           0
      2572 MEMB     23       SLPC     H8X      HAL2     0.900000E-01   1.00800           0
      2573 MEMB     23       SLPC     H8Y      HAL2     0.900000E-01   1.00800           0
      2574 MEMB     23       SLPC     C39      CTL2    -0.180000       12.0110           0
      2575 MEMB     23       SLPC     H9X      HAL2     0.900000E-01   1.00800           0
      2576 MEMB     23       SLPC     H9Y      HAL2     0.900000E-01   1.00800           0
      2577 MEMB     23       SLPC     C310     CTL2    -0.180000       12.0110           0
      2578 MEMB     23       SLPC     H10X     HAL2     0.900000E-01   1.00800           0
      2579 MEMB     23       SLPC     H10Y     HAL2     0.900000E-01   1.00800           0
      2580 MEMB     23       SLPC     C311     CTL2    -0.180000       12.0110           0
      2581 MEMB     23       SLPC     H11X     HAL2     0.900000E-01   1.00800           0
      2582 MEMB     23       SLPC     H11Y     HAL2     0.900000E-01   1.00800           0
      2583 MEMB     23       SLPC     C312     CTL2    -0.180000       12.0110           0
      2584 MEMB     23       SLPC     H12X     HAL2     0.900000E-01   1.00800           0
      2585 MEMB     23       SLPC     H12Y     HAL2     0.900000E-01   1.00800           0
      2586 MEMB     23       SLPC     C313     CTL2    -0.180000       12.0110           0
      2587 MEMB     23       SLPC     H13X     HAL2     0.900000E-01   1.00800           0
      2588 MEMB     23       SLPC     H13Y     HAL2     0.900000E-01   1.00800           0
      2589 MEMB     23       SLPC     C314     CTL2    -0.180000       12.0110           0
      2590 MEMB     23       SLPC     H14X     HAL2     0.900000E-01   1.00800           0
      2591 MEMB     23       SLPC     H14Y     HAL2     0.900000E-01   1.00800           0
      2592 MEMB     23       SLPC     C315     CTL2    -0.180000       12.0110           0
      2593 MEMB     23       SLPC     H15X     HAL2     0.900000E-01   1.00800           0
      2594 MEMB     23       SLPC     H15Y     HAL2     0.900000E-01   1.00800           0
      2595 MEMB     23       SLPC     C316     CTL2    -0.180000       12.0110           0
      2596 MEMB     23       SLPC     H16X     HAL2     0.900000E-01   1.00800           0
      2597 MEMB     23       SLPC     H16Y     HAL2     0.900000E-01   1.00800           0
      2598 MEMB     23       SLPC     C317     CTL2    -0.180000       12.0110           0
      2599 MEMB     23       SLPC     H17X     HAL2     0.900000E-01   1.00800           0
      2600 MEMB     23       SLPC     H17Y     HAL2     0.900000E-01   1.00800           0
      2601 MEMB     23       SLPC     C318     CTL3    -0.270000       12.0110           0
      2602 MEMB     23       SLPC     H18X     HAL3     0.900000E-01   1.00800           0
      2603 MEMB     23       SLPC     H18Y     HAL3     0.900000E-01   1.00800           0
      2604 MEMB     23       SLPC     H18Z     HAL3     0.900000E-01   1.00800           0
      2605 MEMB     24       OSM      N        NTL     -0.600000       14.0070           0
      2606 MEMB     24       OSM      C15      CTL5    -0.350000       12.0110           0
      2607 MEMB     24       OSM      H15A     HL       0.250000       1.00800           0
      2608 MEMB     24       OSM      H15B     HL       0.250000       1.00800           0
      2609 MEMB     24       OSM      H15C     HL       0.250000       1.00800           0
      2610 MEMB     24       OSM      C14      CTL5    -0.350000       12.0110           0
      2611 MEMB     24       OSM      H14A     HL       0.250000       1.00800           0
      2612 MEMB     24       OSM      H14B     HL       0.250000       1.00800           0
      2613 MEMB     24       OSM      H14C     HL       0.250000       1.00800           0
      2614 MEMB     24       OSM      C13      CTL5    -0.350000       12.0110           0
      2615 MEMB     24       OSM      H13A     HL       0.250000       1.00800           0
      2616 MEMB     24       OSM      H13B     HL       0.250000       1.00800           0
      2617 MEMB     24       OSM      H13C     HL       0.250000       1.00800           0
      2618 MEMB     24       OSM      C12      CTL2    -0.100000       12.0110           0
      2619 MEMB     24       OSM      H12A     HL       0.250000       1.00800           0
      2620 MEMB     24       OSM      H12B     HL       0.250000       1.00800           0
      2621 MEMB     24       OSM      C11      CTL2    -0.800000E-01   12.0110           0
      2622 MEMB     24       OSM      H11A     HAL2     0.900000E-01   1.00800           0
      2623 MEMB     24       OSM      H11B     HAL2     0.900000E-01   1.00800           0
      2624 MEMB     24       OSM      P        PL        1.50000       30.9740           0
      2625 MEMB     24       OSM      O13      O2L     -0.780000       15.9994           0
      2626 MEMB     24       OSM      O14      O2L     -0.780000       15.9994           0
      2627 MEMB     24       OSM      O11      OSLP    -0.570000       15.9994           0
      2628 MEMB     24       OSM      O12      OSLP    -0.570000       15.9994           0
      2629 MEMB     24       OSM      C1S      CTL2    -0.800000E-01   12.0110           0
      2630 MEMB     24       OSM      H1S      HAL2     0.900000E-01   1.00800           0
      2631 MEMB     24       OSM      H1T      HAL2     0.900000E-01   1.00800           0
      2632 MEMB     24       OSM      NF       NHL     -0.700000       14.0070           0
      2633 MEMB     24       OSM      HNF      H        0.350000       1.00800           0
      2634 MEMB     24       OSM      C2S      CTL1     0.300000       12.0110           0
      2635 MEMB     24       OSM      H2S      HAL1     0.500000E-01   1.00800           0
      2636 MEMB     24       OSM      C3S      CTO1     0.500000       12.0110           0
      2637 MEMB     24       OSM      H3S      HAL1    -0.110000       1.00800           0
      2638 MEMB     24       OSM      O3       OHL     -0.690000       15.9994           0
      2639 MEMB     24       OSM      HO3      HOL      0.300000       1.00800           0
      2640 MEMB     24       OSM      C4S      CEL3    -0.150000       12.0110           0
      2641 MEMB     24       OSM      H4S      HEL1     0.150000       1.00800           0
      2642 MEMB     24       OSM      C5S      CEL3    -0.150000       12.0110           0
      2643 MEMB     24       OSM      H5S      HEL1     0.150000       1.00800           0
      2644 MEMB     24       OSM      C6S      CTL2    -0.180000       12.0110           0
      2645 MEMB     24       OSM      H6S      HAL2     0.900000E-01   1.00800           0
      2646 MEMB     24       OSM      H6T      HAL2     0.900000E-01   1.00800           0
      2647 MEMB     24       OSM      C7S      CTL2    -0.180000       12.0110           0
      2648 MEMB     24       OSM      H7S      HAL2     0.900000E-01   1.00800           0
      2649 MEMB     24       OSM      H7T      HAL2     0.900000E-01   1.00800           0
      2650 MEMB     24       OSM      C8S      CTL2    -0.180000       12.0110           0
      2651 MEMB     24       OSM      H8S      HAL2     0.900000E-01   1.00800           0
      2652 MEMB     24       OSM      H8T      HAL2     0.900000E-01   1.00800           0
      2653 MEMB     24       OSM      C9S      CTL2    -0.180000       12.0110           0
      2654 MEMB     24       OSM      H9S      HAL2     0.900000E-01   1.00800           0
      2655 MEMB     24       OSM      H9T      HAL2     0.900000E-01   1.00800           0
      2656 MEMB     24       OSM      C10S     CTL2    -0.180000       12.0110           0
      2657 MEMB     24       OSM      H10S     HAL2     0.900000E-01   1.00800           0
      2658 MEMB     24       OSM      H10T     HAL2     0.900000E-01   1.00800           0
      2659 MEMB     24       OSM      C11S     CTL2    -0.180000       12.0110           0
      2660 MEMB     24       OSM      H11S     HAL2     0.900000E-01   1.00800           0
      2661 MEMB     24       OSM      H11T     HAL2     0.900000E-01   1.00800           0
      2662 MEMB     24       OSM      C12S     CTL2    -0.180000       12.0110           0
      2663 MEMB     24       OSM      H12S     HAL2     0.900000E-01   1.00800           0
      2664 MEMB     24       OSM      H12T     HAL2     0.900000E-01   1.00800           0
      2665 MEMB     24       OSM      C13S     CTL2    -0.180000       12.0110           0
      2666 MEMB     24       OSM      H13S     HAL2     0.900000E-01   1.00800           0
      2667 MEMB     24       OSM      H13T     HAL2     0.900000E-01   1.00800           0
      2668 MEMB     24       OSM      C14S     CTL2    -0.180000       12.0110           0
      2669 MEMB     24       OSM      H14S     HAL2     0.900000E-01   1.00800           0
      2670 MEMB     24       OSM      H14T     HAL2     0.900000E-01   1.00800           0
      2671 MEMB     24       OSM      C15S     CTL2    -0.180000       12.0110           0
      2672 MEMB     24       OSM      H15S     HAL2     0.900000E-01   1.00800           0
      2673 MEMB     24       OSM      H15T     HAL2     0.900000E-01   1.00800           0
      2674 MEMB     24       OSM      C16S     CTL2    -0.180000       12.0110           0
      2675 MEMB     24       OSM      H16S     HAL2     0.900000E-01   1.00800           0
      2676 MEMB     24       OSM      H16T     HAL2     0.900000E-01   1.00800           0
      2677 MEMB     24       OSM      C17S     CTL2    -0.180000       12.0110           0
      2678 MEMB     24       OSM      H17S     HAL2     0.900000E-01   1.00800           0
      2679 MEMB     24       OSM      H17T     HAL2     0.900000E-01   1.00800           0
      2680 MEMB     24       OSM      C18S     CTL3    -0.270000       12.0110           0
      2681 MEMB     24       OSM      H18S     HAL3     0.900000E-01   1.00800           0
      2682 MEMB     24       OSM      H18T     HAL3     0.900000E-01   1.00800           0
      2683 MEMB     24       OSM      H18U     HAL3     0.900000E-01   1.00800           0
      2684 MEMB     24       OSM      C1F      C        0.550000       12.0110           0
      2685 MEMB     24       OSM      OF       O       -0.600000       15.9994           0
      2686 MEMB     24       OSM      C2F      CTL2    -0.700000E-01   12.0110           0
      2687 MEMB     24       OSM      H2F      HAL2     0.600000E-01   1.00800           0
      2688 MEMB     24       OSM      H2G      HAL2     0.600000E-01   1.00800           0
      2689 MEMB     24       OSM      C3F      CTL2    -0.180000       12.0110           0
      2690 MEMB     24       OSM      H3F      HAL2     0.900000E-01   1.00800           0
      2691 MEMB     24       OSM      H3G      HAL2     0.900000E-01   1.00800           0
      2692 MEMB     24       OSM      C4F      CTL2    -0.180000       12.0110           0
      2693 MEMB     24       OSM      H4F      HAL2     0.900000E-01   1.00800           0
      2694 MEMB     24       OSM      H4G      HAL2     0.900000E-01   1.00800           0
      2695 MEMB     24       OSM      C5F      CTL2    -0.180000       12.0110           0
      2696 MEMB     24       OSM      H5F      HAL2     0.900000E-01   1.00800           0
      2697 MEMB     24       OSM      H5G      HAL2     0.900000E-01   1.00800           0
      2698 MEMB     24       OSM      C6F      CTL2    -0.180000       12.0110           0
      2699 MEMB     24       OSM      H6F      HAL2     0.900000E-01   1.00800           0
      2700 MEMB     24       OSM      H6G      HAL2     0.900000E-01   1.00800           0
      2701 MEMB     24       OSM      C7F      CTL2    -0.180000       12.0110           0
      2702 MEMB     24       OSM      H7F      HAL2     0.900000E-01   1.00800           0
      2703 MEMB     24       OSM      H7G      HAL2     0.900000E-01   1.00800           0
      2704 MEMB     24       OSM      C8F      CTL2    -0.180000       12.0110           0
      2705 MEMB     24       OSM      H8F      HAL2     0.900000E-01   1.00800           0
      2706 MEMB     24       OSM      H8G      HAL2     0.900000E-01   1.00800           0
      2707 MEMB     24       OSM      C9F      CEL1    -0.150000       12.0110           0
      2708 MEMB     24       OSM      H9F      HEL1     0.150000       1.00800           0
      2709 MEMB     24       OSM      C10F     CEL1    -0.150000       12.0110           0
      2710 MEMB     24       OSM      H10F     HEL1     0.150000       1.00800           0
      2711 MEMB     24       OSM      C11F     CTL2    -0.180000       12.0110           0
      2712 MEMB     24       OSM      H11F     HAL2     0.900000E-01   1.00800           0
      2713 MEMB     24       OSM      H11G     HAL2     0.900000E-01   1.00800           0
      2714 MEMB     24       OSM      C12F     CTL2    -0.180000       12.0110           0
      2715 MEMB     24       OSM      H12F     HAL2     0.900000E-01   1.00800           0
      2716 MEMB     24       OSM      H12G     HAL2     0.900000E-01   1.00800           0
      2717 MEMB     24       OSM      C13F     CTL2    -0.180000       12.0110           0
      2718 MEMB     24       OSM      H13F     HAL2     0.900000E-01   1.00800           0
      2719 MEMB     24       OSM      H13G     HAL2     0.900000E-01   1.00800           0
      2720 MEMB     24       OSM      C14F     CTL2    -0.180000       12.0110           0
      2721 MEMB     24       OSM      H14F     HAL2     0.900000E-01   1.00800           0
      2722 MEMB     24       OSM      H14G     HAL2     0.900000E-01   1.00800           0
      2723 MEMB     24       OSM      C15F     CTL2    -0.180000       12.0110           0
      2724 MEMB     24       OSM      H15F     HAL2     0.900000E-01   1.00800           0
      2725 MEMB     24       OSM      H15G     HAL2     0.900000E-01   1.00800           0
      2726 MEMB     24       OSM      C16F     CTL2    -0.180000       12.0110           0
      2727 MEMB     24       OSM      H16F     HAL2     0.900000E-01   1.00800           0
      2728 MEMB     24       OSM      H16G     HAL2     0.900000E-01   1.00800           0
      2729 MEMB     24       OSM      C17F     CTL2    -0.180000       12.0110           0
      2730 MEMB     24       OSM      H17F     HAL2     0.900000E-01   1.00800           0
      2731 MEMB     24       OSM      H17G     HAL2     0.900000E-01   1.00800           0
      2732 MEMB     24       OSM      C18F     CTL3    -0.270000       12.0110           0
      2733 MEMB     24       OSM      H18F     HAL3     0.900000E-01   1.00800           0
      2734 MEMB     24       OSM      H18G     HAL3     0.900000E-01   1.00800           0
      2735 MEMB     24       OSM      H18H     HAL3     0.900000E-01   1.00800           0
      2736 MEMB     25       CHL1     C3       CRL1     0.140000       12.0110           0
      2737 MEMB     25       CHL1     H3       HGA1     0.900000E-01   1.00800           0
      2738 MEMB     25       CHL1     O3       OHL     -0.660000       15.9994           0
      2739 MEMB     25       CHL1     H3'      HOL      0.430000       1.00800           0
      2740 MEMB     25       CHL1     C4       CRL2    -0.180000       12.0110           0
      2741 MEMB     25       CHL1     H4A      HGA2     0.900000E-01   1.00800           0
      2742 MEMB     25       CHL1     H4B      HGA2     0.900000E-01   1.00800           0
      2743 MEMB     25       CHL1     C5       CEL1      0.00000       12.0110           0
      2744 MEMB     25       CHL1     C6       CEL1    -0.150000       12.0110           0
      2745 MEMB     25       CHL1     H6       HEL1     0.150000       1.00800           0
      2746 MEMB     25       CHL1     C7       CRL2    -0.180000       12.0110           0
      2747 MEMB     25       CHL1     H7A      HGA2     0.900000E-01   1.00800           0
      2748 MEMB     25       CHL1     H7B      HGA2     0.900000E-01   1.00800           0
      2749 MEMB     25       CHL1     C8       CRL1    -0.900000E-01   12.0110           0
      2750 MEMB     25       CHL1     H8       HGA1     0.900000E-01   1.00800           0
      2751 MEMB     25       CHL1     C14      CRL1    -0.900000E-01   12.0110           0
      2752 MEMB     25       CHL1     H14      HGA1     0.900000E-01   1.00800           0
      2753 MEMB     25       CHL1     C15      CRL2    -0.180000       12.0110           0
      2754 MEMB     25       CHL1     H15A     HGA2     0.900000E-01   1.00800           0
      2755 MEMB     25       CHL1     H15B     HGA2     0.900000E-01   1.00800           0
      2756 MEMB     25       CHL1     C16      CRL2    -0.180000       12.0110           0
      2757 MEMB     25       CHL1     H16A     HGA2     0.900000E-01   1.00800           0
      2758 MEMB     25       CHL1     H16B     HGA2     0.900000E-01   1.00800           0
      2759 MEMB     25       CHL1     C17      CRL1    -0.900000E-01   12.0110           0
      2760 MEMB     25       CHL1     H17      HGA1     0.900000E-01   1.00800           0
      2761 MEMB     25       CHL1     C13      CRL1      0.00000       12.0110           0
      2762 MEMB     25       CHL1     C18      CTL3    -0.270000       12.0110           0
      2763 MEMB     25       CHL1     H18A     HAL3     0.900000E-01   1.00800           0
      2764 MEMB     25       CHL1     H18B     HAL3     0.900000E-01   1.00800           0
      2765 MEMB     25       CHL1     H18C     HAL3     0.900000E-01   1.00800           0
      2766 MEMB     25       CHL1     C12      CRL2    -0.180000       12.0110           0
      2767 MEMB     25       CHL1     H12A     HGA2     0.900000E-01   1.00800           0
      2768 MEMB     25       CHL1     H12B     HGA2     0.900000E-01   1.00800           0
      2769 MEMB     25       CHL1     C11      CRL2    -0.180000       12.0110           0
      2770 MEMB     25       CHL1     H11A     HGA2     0.900000E-01   1.00800           0
      2771 MEMB     25       CHL1     H11B     HGA2     0.900000E-01   1.00800           0
      2772 MEMB     25       CHL1     C9       CRL1    -0.900000E-01   12.0110           0
      2773 MEMB     25       CHL1     H9       HGA1     0.900000E-01   1.00800           0
      2774 MEMB     25       CHL1     C10      CRL1      0.00000       12.0110           0
      2775 MEMB     25       CHL1     C19      CTL3    -0.270000       12.0110           0
      2776 MEMB     25       CHL1     H19A     HAL3     0.900000E-01   1.00800           0
      2777 MEMB     25       CHL1     H19B     HAL3     0.900000E-01   1.00800           0
      2778 MEMB     25       CHL1     H19C     HAL3     0.900000E-01   1.00800           0
      2779 MEMB     25       CHL1     C1       CRL2    -0.180000       12.0110           0
      2780 MEMB     25       CHL1     H1A      HGA2     0.900000E-01   1.00800           0
      2781 MEMB     25       CHL1     H1B      HGA2     0.900000E-01   1.00800           0
      2782 MEMB     25       CHL1     C2       CRL2    -0.180000       12.0110           0
      2783 MEMB     25       CHL1     H2A      HGA2     0.900000E-01   1.00800           0
      2784 MEMB     25       CHL1     H2B      HGA2     0.900000E-01   1.00800           0
      2785 MEMB     25       CHL1     C20      CTL1    -0.900000E-01   12.0110           0
      2786 MEMB     25       CHL1     H20      HAL1     0.900000E-01   1.00800           0
      2787 MEMB     25       CHL1     C21      CTL3    -0.270000       12.0110           0
      2788 MEMB     25       CHL1     H21A     HAL3     0.900000E-01   1.00800           0
      2789 MEMB     25       CHL1     H21B     HAL3     0.900000E-01   1.00800           0
      2790 MEMB     25       CHL1     H21C     HAL3     0.900000E-01   1.00800           0
      2791 MEMB     25       CHL1     C22      CTL2    -0.180000       12.0110           0
      2792 MEMB     25       CHL1     H22A     HAL2     0.900000E-01   1.00800           0
      2793 MEMB     25       CHL1     H22B     HAL2     0.900000E-01   1.00800           0
      2794 MEMB     25       CHL1     C23      CTL2    -0.180000       12.0110           0
      2795 MEMB     25       CHL1     H23A     HAL2     0.900000E-01   1.00800           0
      2796 MEMB     25       CHL1     H23B     HAL2     0.900000E-01   1.00800           0
      2797 MEMB     25       CHL1     C24      CTL2    -0.180000       12.0110           0
      2798 MEMB     25       CHL1     H24A     HAL2     0.900000E-01   1.00800           0
      2799 MEMB     25       CHL1     H24B     HAL2     0.900000E-01   1.00800           0
      2800 MEMB     25       CHL1     C25      CTL1    -0.900000E-01   12.0110           0
      2801 MEMB     25       CHL1     H25      HAL1     0.900000E-01   1.00800           0
      2802 MEMB     25       CHL1     C26      CTL3    -0.270000       12.0110           0
      2803 MEMB     25       CHL1     H26A     HAL3     0.900000E-01   1.00800           0
      2804 MEMB     25       CHL1     H26B     HAL3     0.900000E-01   1.00800           0
      2805 MEMB     25       CHL1     H26C     HAL3     0.900000E-01   1.00800           0
      2806 MEMB     25       CHL1     C27      CTL3    -0.270000       12.0110           0
      2807 MEMB     25       CHL1     H27A     HAL3     0.900000E-01   1.00800           0
      2808 MEMB     25       CHL1     H27B     HAL3     0.900000E-01   1.00800           0
      2809 MEMB     25       CHL1     H27C     HAL3     0.900000E-01   1.00800           0
      2810 MEMB     26       SAPE     N        NH3L    -0.300000       14.0070           0
      2811 MEMB     26       SAPE     HN1      HCL      0.330000       1.00800           0
      2812 MEMB     26       SAPE     HN2      HCL      0.330000       1.00800           0
      2813 MEMB     26       SAPE     HN3      HCL      0.330000       1.00800           0
      2814 MEMB     26       SAPE     C12      CTL2     0.130000       12.0110           0
      2815 MEMB     26       SAPE     H12A     HAL2     0.900000E-01   1.00800           0
      2816 MEMB     26       SAPE     H12B     HAL2     0.900000E-01   1.00800           0
      2817 MEMB     26       SAPE     C11      CTL2    -0.800000E-01   12.0110           0
      2818 MEMB     26       SAPE     H11A     HAL2     0.900000E-01   1.00800           0
      2819 MEMB     26       SAPE     H11B     HAL2     0.900000E-01   1.00800           0
      2820 MEMB     26       SAPE     P        PL        1.50000       30.9740           0
      2821 MEMB     26       SAPE     O13      O2L     -0.780000       15.9994           0
      2822 MEMB     26       SAPE     O14      O2L     -0.780000       15.9994           0
      2823 MEMB     26       SAPE     O12      OSLP    -0.570000       15.9994           0
      2824 MEMB     26       SAPE     O11      OSLP    -0.570000       15.9994           0
      2825 MEMB     26       SAPE     C1       CTL2    -0.800000E-01   12.0110           0
      2826 MEMB     26       SAPE     HA       HAL2     0.900000E-01   1.00800           0
      2827 MEMB     26       SAPE     HB       HAL2     0.900000E-01   1.00800           0
      2828 MEMB     26       SAPE     C2       CTL1     0.170000       12.0110           0
      2829 MEMB     26       SAPE     HS       HAL1     0.900000E-01   1.00800           0
      2830 MEMB     26       SAPE     O21      OSL     -0.490000       15.9994           0
      2831 MEMB     26       SAPE     C21      CL       0.900000       12.0110           0
      2832 MEMB     26       SAPE     O22      OBL     -0.630000       15.9994           0
      2833 MEMB     26       SAPE     C22      CTL2    -0.220000       12.0110           0
      2834 MEMB     26       SAPE     H2R      HAL2     0.900000E-01   1.00800           0
      2835 MEMB     26       SAPE     H2S      HAL2     0.900000E-01   1.00800           0
      2836 MEMB     26       SAPE     C3       CTL2     0.800000E-01   12.0110           0
      2837 MEMB     26       SAPE     HX       HAL2     0.900000E-01   1.00800           0
      2838 MEMB     26       SAPE     HY       HAL2     0.900000E-01   1.00800           0
      2839 MEMB     26       SAPE     O31      OSL     -0.490000       15.9994           0
      2840 MEMB     26       SAPE     C31      CL       0.900000       12.0110           0
      2841 MEMB     26       SAPE     O32      OBL     -0.630000       15.9994           0
      2842 MEMB     26       SAPE     C32      CTL2    -0.220000       12.0110           0
      2843 MEMB     26       SAPE     H2X      HAL2     0.900000E-01   1.00800           0
      2844 MEMB     26       SAPE     H2Y      HAL2     0.900000E-01   1.00800           0
      2845 MEMB     26       SAPE     C23      CTL2    -0.180000       12.0110           0
      2846 MEMB     26       SAPE     H3R      HAL2     0.900000E-01   1.00800           0
      2847 MEMB     26       SAPE     H3S      HAL2     0.900000E-01   1.00800           0
      2848 MEMB     26       SAPE     C24      CTL2    -0.180000       12.0110           0
      2849 MEMB     26       SAPE     H4R      HAL2     0.900000E-01   1.00800           0
      2850 MEMB     26       SAPE     H4S      HAL2     0.900000E-01   1.00800           0
      2851 MEMB     26       SAPE     C25      CEL1    -0.150000       12.0110           0
      2852 MEMB     26       SAPE     H5R      HEL1     0.150000       1.00800           0
      2853 MEMB     26       SAPE     C26      CEL1    -0.150000       12.0110           0
      2854 MEMB     26       SAPE     H6R      HEL1     0.150000       1.00800           0
      2855 MEMB     26       SAPE     C27      CTL2    -0.180000       12.0110           0
      2856 MEMB     26       SAPE     H7R      HAL2     0.900000E-01   1.00800           0
      2857 MEMB     26       SAPE     H7S      HAL2     0.900000E-01   1.00800           0
      2858 MEMB     26       SAPE     C28      CEL1    -0.150000       12.0110           0
      2859 MEMB     26       SAPE     H8R      HEL1     0.150000       1.00800           0
      2860 MEMB     26       SAPE     C29      CEL1    -0.150000       12.0110           0
      2861 MEMB     26       SAPE     H9R      HEL1     0.150000       1.00800           0
      2862 MEMB     26       SAPE     C210     CTL2    -0.180000       12.0110           0
      2863 MEMB     26       SAPE     H10R     HAL2     0.900000E-01   1.00800           0
      2864 MEMB     26       SAPE     H10S     HAL2     0.900000E-01   1.00800           0
      2865 MEMB     26       SAPE     C211     CEL1    -0.150000       12.0110           0
      2866 MEMB     26       SAPE     H11R     HEL1     0.150000       1.00800           0
      2867 MEMB     26       SAPE     C212     CEL1    -0.150000       12.0110           0
      2868 MEMB     26       SAPE     H12R     HEL1     0.150000       1.00800           0
      2869 MEMB     26       SAPE     C213     CTL2    -0.180000       12.0110           0
      2870 MEMB     26       SAPE     H13R     HAL2     0.900000E-01   1.00800           0
      2871 MEMB     26       SAPE     H13S     HAL2     0.900000E-01   1.00800           0
      2872 MEMB     26       SAPE     C214     CEL1    -0.150000       12.0110           0
      2873 MEMB     26       SAPE     H14R     HEL1     0.150000       1.00800           0
      2874 MEMB     26       SAPE     C215     CEL1    -0.150000       12.0110           0
      2875 MEMB     26       SAPE     H15R     HEL1     0.150000       1.00800           0
      2876 MEMB     26       SAPE     C216     CTL2    -0.180000       12.0110           0
      2877 MEMB     26       SAPE     H16R     HAL2     0.900000E-01   1.00800           0
      2878 MEMB     26       SAPE     H16S     HAL2     0.900000E-01   1.00800           0
      2879 MEMB     26       SAPE     C217     CTL2    -0.180000       12.0110           0
      2880 MEMB     26       SAPE     H17R     HAL2     0.900000E-01   1.00800           0
      2881 MEMB     26       SAPE     H17S     HAL2     0.900000E-01   1.00800           0
      2882 MEMB     26       SAPE     C218     CTL2    -0.180000       12.0110           0
      2883 MEMB     26       SAPE     H18R     HAL2     0.900000E-01   1.00800           0
      2884 MEMB     26       SAPE     H18S     HAL2     0.900000E-01   1.00800           0
      2885 MEMB     26       SAPE     C219     CTL2    -0.180000       12.0110           0
      2886 MEMB     26       SAPE     H19R     HAL2     0.900000E-01   1.00800           0
      2887 MEMB     26       SAPE     H19S     HAL2     0.900000E-01   1.00800           0
      2888 MEMB     26       SAPE     C220     CTL3    -0.270000       12.0110           0
      2889 MEMB     26       SAPE     H20R     HAL3     0.900000E-01   1.00800           0
      2890 MEMB     26       SAPE     H20S     HAL3     0.900000E-01   1.00800           0
      2891 MEMB     26       SAPE     H20T     HAL3     0.900000E-01   1.00800           0
      2892 MEMB     26       SAPE     C33      CTL2    -0.180000       12.0110           0
      2893 MEMB     26       SAPE     H3X      HAL2     0.900000E-01   1.00800           0
      2894 MEMB     26       SAPE     H3Y      HAL2     0.900000E-01   1.00800           0
      2895 MEMB     26       SAPE     C34      CTL2    -0.180000       12.0110           0
      2896 MEMB     26       SAPE     H4X      HAL2     0.900000E-01   1.00800           0
      2897 MEMB     26       SAPE     H4Y      HAL2     0.900000E-01   1.00800           0
      2898 MEMB     26       SAPE     C35      CTL2    -0.180000       12.0110           0
      2899 MEMB     26       SAPE     H5X      HAL2     0.900000E-01   1.00800           0
      2900 MEMB     26       SAPE     H5Y      HAL2     0.900000E-01   1.00800           0
      2901 MEMB     26       SAPE     C36      CTL2    -0.180000       12.0110           0
      2902 MEMB     26       SAPE     H6X      HAL2     0.900000E-01   1.00800           0
      2903 MEMB     26       SAPE     H6Y      HAL2     0.900000E-01   1.00800           0
      2904 MEMB     26       SAPE     C37      CTL2    -0.180000       12.0110           0
      2905 MEMB     26       SAPE     H7X      HAL2     0.900000E-01   1.00800           0
      2906 MEMB     26       SAPE     H7Y      HAL2     0.900000E-01   1.00800           0
      2907 MEMB     26       SAPE     C38      CTL2    -0.180000       12.0110           0
      2908 MEMB     26       SAPE     H8X      HAL2     0.900000E-01   1.00800           0
      2909 MEMB     26       SAPE     H8Y      HAL2     0.900000E-01   1.00800           0
      2910 MEMB     26       SAPE     C39      CTL2    -0.180000       12.0110           0
      2911 MEMB     26       SAPE     H9X      HAL2     0.900000E-01   1.00800           0
      2912 MEMB     26       SAPE     H9Y      HAL2     0.900000E-01   1.00800           0
      2913 MEMB     26       SAPE     C310     CTL2    -0.180000       12.0110           0
      2914 MEMB     26       SAPE     H10X     HAL2     0.900000E-01   1.00800           0
      2915 MEMB     26       SAPE     H10Y     HAL2     0.900000E-01   1.00800           0
      2916 MEMB     26       SAPE     C311     CTL2    -0.180000       12.0110           0
      2917 MEMB     26       SAPE     H11X     HAL2     0.900000E-01   1.00800           0
      2918 MEMB     26       SAPE     H11Y     HAL2     0.900000E-01   1.00800           0
      2919 MEMB     26       SAPE     C312     CTL2    -0.180000       12.0110           0
      2920 MEMB     26       SAPE     H12X     HAL2     0.900000E-01   1.00800           0
      2921 MEMB     26       SAPE     H12Y     HAL2     0.900000E-01   1.00800           0
      2922 MEMB     26       SAPE     C313     CTL2    -0.180000       12.0110           0
      2923 MEMB     26       SAPE     H13X     HAL2     0.900000E-01   1.00800           0
      2924 MEMB     26       SAPE     H13Y     HAL2     0.900000E-01   1.00800           0
      2925 MEMB     26       SAPE     C314     CTL2    -0.180000       12.0110           0
      2926 MEMB     26       SAPE     H14X     HAL2     0.900000E-01   1.00800           0
      2927 MEMB     26       SAPE     H14Y     HAL2     0.900000E-01   1.00800           0
      2928 MEMB     26       SAPE     C315     CTL2    -0.180000       12.0110           0
      2929 MEMB     26       SAPE     H15X     HAL2     0.900000E-01   1.00800           0
      2930 MEMB     26       SAPE     H15Y     HAL2     0.900000E-01   1.00800           0
      2931 MEMB     26       SAPE     C316     CTL2    -0.180000       12.0110           0
      2932 MEMB     26       SAPE     H16X     HAL2     0.900000E-01   1.00800           0
      2933 MEMB     26       SAPE     H16Y     HAL2     0.900000E-01   1.00800           0
      2934 MEMB     26       SAPE     C317     CTL2    -0.180000       12.0110           0
      2935 MEMB     26       SAPE     H17X     HAL2     0.900000E-01   1.00800           0
      2936 MEMB     26       SAPE     H17Y     HAL2     0.900000E-01   1.00800           0
      2937 MEMB     26       SAPE     C318     CTL3    -0.270000       12.0110           0
      2938 MEMB     26       SAPE     H18X     HAL3     0.900000E-01   1.00800           0
      2939 MEMB     26       SAPE     H18Y     HAL3     0.900000E-01   1.00800           0
      2940 MEMB     26       SAPE     H18Z     HAL3     0.900000E-01   1.00800           0
      2941 MEMB     27       SOPE     N        NH3L    -0.300000       14.0070           0
      2942 MEMB     27       SOPE     HN1      HCL      0.330000       1.00800           0
      2943 MEMB     27       SOPE     HN2      HCL      0.330000       1.00800           0
      2944 MEMB     27       SOPE     HN3      HCL      0.330000       1.00800           0
      2945 MEMB     27       SOPE     C12      CTL2     0.130000       12.0110           0
      2946 MEMB     27       SOPE     H12A     HAL2     0.900000E-01   1.00800           0
      2947 MEMB     27       SOPE     H12B     HAL2     0.900000E-01   1.00800           0
      2948 MEMB     27       SOPE     C11      CTL2    -0.800000E-01   12.0110           0
      2949 MEMB     27       SOPE     H11A     HAL2     0.900000E-01   1.00800           0
      2950 MEMB     27       SOPE     H11B     HAL2     0.900000E-01   1.00800           0
      2951 MEMB     27       SOPE     P        PL        1.50000       30.9740           0
      2952 MEMB     27       SOPE     O13      O2L     -0.780000       15.9994           0
      2953 MEMB     27       SOPE     O14      O2L     -0.780000       15.9994           0
      2954 MEMB     27       SOPE     O12      OSLP    -0.570000       15.9994           0
      2955 MEMB     27       SOPE     O11      OSLP    -0.570000       15.9994           0
      2956 MEMB     27       SOPE     C1       CTL2    -0.800000E-01   12.0110           0
      2957 MEMB     27       SOPE     HA       HAL2     0.900000E-01   1.00800           0
      2958 MEMB     27       SOPE     HB       HAL2     0.900000E-01   1.00800           0
      2959 MEMB     27       SOPE     C2       CTL1     0.170000       12.0110           0
      2960 MEMB     27       SOPE     HS       HAL1     0.900000E-01   1.00800           0
      2961 MEMB     27       SOPE     O21      OSL     -0.490000       15.9994           0
      2962 MEMB     27       SOPE     C21      CL       0.900000       12.0110           0
      2963 MEMB     27       SOPE     O22      OBL     -0.630000       15.9994           0
      2964 MEMB     27       SOPE     C22      CTL2    -0.220000       12.0110           0
      2965 MEMB     27       SOPE     H2R      HAL2     0.900000E-01   1.00800           0
      2966 MEMB     27       SOPE     H2S      HAL2     0.900000E-01   1.00800           0
      2967 MEMB     27       SOPE     C3       CTL2     0.800000E-01   12.0110           0
      2968 MEMB     27       SOPE     HX       HAL2     0.900000E-01   1.00800           0
      2969 MEMB     27       SOPE     HY       HAL2     0.900000E-01   1.00800           0
      2970 MEMB     27       SOPE     O31      OSL     -0.490000       15.9994           0
      2971 MEMB     27       SOPE     C31      CL       0.900000       12.0110           0
      2972 MEMB     27       SOPE     O32      OBL     -0.630000       15.9994           0
      2973 MEMB     27       SOPE     C32      CTL2    -0.220000       12.0110           0
      2974 MEMB     27       SOPE     H2X      HAL2     0.900000E-01   1.00800           0
      2975 MEMB     27       SOPE     H2Y      HAL2     0.900000E-01   1.00800           0
      2976 MEMB     27       SOPE     C23      CTL2    -0.180000       12.0110           0
      2977 MEMB     27       SOPE     H3R      HAL2     0.900000E-01   1.00800           0
      2978 MEMB     27       SOPE     H3S      HAL2     0.900000E-01   1.00800           0
      2979 MEMB     27       SOPE     C24      CTL2    -0.180000       12.0110           0
      2980 MEMB     27       SOPE     H4R      HAL2     0.900000E-01   1.00800           0
      2981 MEMB     27       SOPE     H4S      HAL2     0.900000E-01   1.00800           0
      2982 MEMB     27       SOPE     C25      CTL2    -0.180000       12.0110           0
      2983 MEMB     27       SOPE     H5R      HAL2     0.900000E-01   1.00800           0
      2984 MEMB     27       SOPE     H5S      HAL2     0.900000E-01   1.00800           0
      2985 MEMB     27       SOPE     C26      CTL2    -0.180000       12.0110           0
      2986 MEMB     27       SOPE     H6R      HAL2     0.900000E-01   1.00800           0
      2987 MEMB     27       SOPE     H6S      HAL2     0.900000E-01   1.00800           0
      2988 MEMB     27       SOPE     C27      CTL2    -0.180000       12.0110           0
      2989 MEMB     27       SOPE     H7R      HAL2     0.900000E-01   1.00800           0
      2990 MEMB     27       SOPE     H7S      HAL2     0.900000E-01   1.00800           0
      2991 MEMB     27       SOPE     C28      CTL2    -0.180000       12.0110           0
      2992 MEMB     27       SOPE     H8R      HAL2     0.900000E-01   1.00800           0
      2993 MEMB     27       SOPE     H8S      HAL2     0.900000E-01   1.00800           0
      2994 MEMB     27       SOPE     C29      CEL1    -0.150000       12.0110           0
      2995 MEMB     27       SOPE     H91      HEL1     0.150000       1.00800           0
      2996 MEMB     27       SOPE     C210     CEL1    -0.150000       12.0110           0
      2997 MEMB     27       SOPE     H101     HEL1     0.150000       1.00800           0
      2998 MEMB     27       SOPE     C211     CTL2    -0.180000       12.0110           0
      2999 MEMB     27       SOPE     H11R     HAL2     0.900000E-01   1.00800           0
      3000 MEMB     27       SOPE     H11S     HAL2     0.900000E-01   1.00800           0
      3001 MEMB     27       SOPE     C212     CTL2    -0.180000       12.0110           0
      3002 MEMB     27       SOPE     H12R     HAL2     0.900000E-01   1.00800           0
      3003 MEMB     27       SOPE     H12S     HAL2     0.900000E-01   1.00800           0
      3004 MEMB     27       SOPE     C213     CTL2    -0.180000       12.0110           0
      3005 MEMB     27       SOPE     H13R     HAL2     0.900000E-01   1.00800           0
      3006 MEMB     27       SOPE     H13S     HAL2     0.900000E-01   1.00800           0
      3007 MEMB     27       SOPE     C214     CTL2    -0.180000       12.0110           0
      3008 MEMB     27       SOPE     H14R     HAL2     0.900000E-01   1.00800           0
      3009 MEMB     27       SOPE     H14S     HAL2     0.900000E-01   1.00800           0
      3010 MEMB     27       SOPE     C215     CTL2    -0.180000       12.0110           0
      3011 MEMB     27       SOPE     H15R     HAL2     0.900000E-01   1.00800           0
      3012 MEMB     27       SOPE     H15S     HAL2     0.900000E-01   1.00800           0
      3013 MEMB     27       SOPE     C216     CTL2    -0.180000       12.0110           0
      3014 MEMB     27       SOPE     H16R     HAL2     0.900000E-01   1.00800           0
      3015 MEMB     27       SOPE     H16S     HAL2     0.900000E-01   1.00800           0
      3016 MEMB     27       SOPE     C217     CTL2    -0.180000       12.0110           0
      3017 MEMB     27       SOPE     H17R     HAL2     0.900000E-01   1.00800           0
      3018 MEMB     27       SOPE     H17S     HAL2     0.900000E-01   1.00800           0
      3019 MEMB     27       SOPE     C218     CTL3    -0.270000       12.0110           0
      3020 MEMB     27       SOPE     H18R     HAL3     0.900000E-01   1.00800           0
      3021 MEMB     27       SOPE     H18S     HAL3     0.900000E-01   1.00800           0
      3022 MEMB     27       SOPE     H18T     HAL3     0.900000E-01   1.00800           0
      3023 MEMB     27       SOPE     C33      CTL2    -0.180000       12.0110           0
      3024 MEMB     27       SOPE     H3X      HAL2     0.900000E-01   1.00800           0
      3025 MEMB     27       SOPE     H3Y      HAL2     0.900000E-01   1.00800           0
      3026 MEMB     27       SOPE     C34      CTL2    -0.180000       12.0110           0
      3027 MEMB     27       SOPE     H4X      HAL2     0.900000E-01   1.00800           0
      3028 MEMB     27       SOPE     H4Y      HAL2     0.900000E-01   1.00800           0
      3029 MEMB     27       SOPE     C35      CTL2    -0.180000       12.0110           0
      3030 MEMB     27       SOPE     H5X      HAL2     0.900000E-01   1.00800           0
      3031 MEMB     27       SOPE     H5Y      HAL2     0.900000E-01   1.00800           0
      3032 MEMB     27       SOPE     C36      CTL2    -0.180000       12.0110           0
      3033 MEMB     27       SOPE     H6X      HAL2     0.900000E-01   1.00800           0
      3034 MEMB     27       SOPE     H6Y      HAL2     0.900000E-01   1.00800           0
      3035 MEMB     27       SOPE     C37      CTL2    -0.180000       12.0110           0
      3036 MEMB     27       SOPE     H7X      HAL2     0.900000E-01   1.00800           0
      3037 MEMB     27       SOPE     H7Y      HAL2     0.900000E-01   1.00800           0
      3038 MEMB     27       SOPE     C38      CTL2    -0.180000       12.0110           0
      3039 MEMB     27       SOPE     H8X      HAL2     0.900000E-01   1.00800           0
      3040 MEMB     27       SOPE     H8Y      HAL2     0.900000E-01   1.00800           0
      3041 MEMB     27       SOPE     C39      CTL2    -0.180000       12.0110           0
      3042 MEMB     27       SOPE     H9X      HAL2     0.900000E-01   1.00800           0
      3043 MEMB     27       SOPE     H9Y      HAL2     0.900000E-01   1.00800           0
      3044 MEMB     27       SOPE     C310     CTL2    -0.180000       12.0110           0
      3045 MEMB     27       SOPE     H10X     HAL2     0.900000E-01   1.00800           0
      3046 MEMB     27       SOPE     H10Y     HAL2     0.900000E-01   1.00800           0
      3047 MEMB     27       SOPE     C311     CTL2    -0.180000       12.0110           0
      3048 MEMB     27       SOPE     H11X     HAL2     0.900000E-01   1.00800           0
      3049 MEMB     27       SOPE     H11Y     HAL2     0.900000E-01   1.00800           0
      3050 MEMB     27       SOPE     C312     CTL2    -0.180000       12.0110           0
      3051 MEMB     27       SOPE     H12X     HAL2     0.900000E-01   1.00800           0
      3052 MEMB     27       SOPE     H12Y     HAL2     0.900000E-01   1.00800           0
      3053 MEMB     27       SOPE     C313     CTL2    -0.180000       12.0110           0
      3054 MEMB     27       SOPE     H13X     HAL2     0.900000E-01   1.00800           0
      3055 MEMB     27       SOPE     H13Y     HAL2     0.900000E-01   1.00800           0
      3056 MEMB     27       SOPE     C314     CTL2    -0.180000       12.0110           0
      3057 MEMB     27       SOPE     H14X     HAL2     0.900000E-01   1.00800           0
      3058 MEMB     27       SOPE     H14Y     HAL2     0.900000E-01   1.00800           0
      3059 MEMB     27       SOPE     C315     CTL2    -0.180000       12.0110           0
      3060 MEMB     27       SOPE     H15X     HAL2     0.900000E-01   1.00800           0
      3061 MEMB     27       SOPE     H15Y     HAL2     0.900000E-01   1.00800           0
      3062 MEMB     27       SOPE     C316     CTL2    -0.180000       12.0110           0
      3063 MEMB     27       SOPE     H16X     HAL2     0.900000E-01   1.00800           0
      3064 MEMB     27       SOPE     H16Y     HAL2     0.900000E-01   1.00800           0
      3065 MEMB     27       SOPE     C317     CTL2    -0.180000       12.0110           0
      3066 MEMB     27       SOPE     H17X     HAL2     0.900000E-01   1.00800           0
      3067 MEMB     27       SOPE     H17Y     HAL2     0.900000E-01   1.00800           0
      3068 MEMB     27       SOPE     C318     CTL3    -0.270000       12.0110           0
      3069 MEMB     27       SOPE     H18X     HAL3     0.900000E-01   1.00800           0
      3070 MEMB     27       SOPE     H18Y     HAL3     0.900000E-01   1.00800           0
      3071 MEMB     27       SOPE     H18Z     HAL3     0.900000E-01   1.00800           0
      3072 MEMB     28       SLPC     N        NTL     -0.600000       14.0070           0
      3073 MEMB     28       SLPC     C13      CTL5    -0.350000       12.0110           0
      3074 MEMB     28       SLPC     H13A     HL       0.250000       1.00800           0
      3075 MEMB     28       SLPC     H13B     HL       0.250000       1.00800           0
      3076 MEMB     28       SLPC     H13C     HL       0.250000       1.00800           0
      3077 MEMB     28       SLPC     C14      CTL5    -0.350000       12.0110           0
      3078 MEMB     28       SLPC     H14A     HL       0.250000       1.00800           0
      3079 MEMB     28       SLPC     H14B     HL       0.250000       1.00800           0
      3080 MEMB     28       SLPC     H14C     HL       0.250000       1.00800           0
      3081 MEMB     28       SLPC     C15      CTL5    -0.350000       12.0110           0
      3082 MEMB     28       SLPC     H15A     HL       0.250000       1.00800           0
      3083 MEMB     28       SLPC     H15B     HL       0.250000       1.00800           0
      3084 MEMB     28       SLPC     H15C     HL       0.250000       1.00800           0
      3085 MEMB     28       SLPC     C12      CTL2    -0.100000       12.0110           0
      3086 MEMB     28       SLPC     H12A     HL       0.250000       1.00800           0
      3087 MEMB     28       SLPC     H12B     HL       0.250000       1.00800           0
      3088 MEMB     28       SLPC     C11      CTL2    -0.800000E-01   12.0110           0
      3089 MEMB     28       SLPC     H11A     HAL2     0.900000E-01   1.00800           0
      3090 MEMB     28       SLPC     H11B     HAL2     0.900000E-01   1.00800           0
      3091 MEMB     28       SLPC     P        PL        1.50000       30.9740           0
      3092 MEMB     28       SLPC     O13      O2L     -0.780000       15.9994           0
      3093 MEMB     28       SLPC     O14      O2L     -0.780000       15.9994           0
      3094 MEMB     28       SLPC     O12      OSLP    -0.570000       15.9994           0
      3095 MEMB     28       SLPC     O11      OSLP    -0.570000       15.9994           0
      3096 MEMB     28       SLPC     C1       CTL2    -0.800000E-01   12.0110           0
      3097 MEMB     28       SLPC     HA       HAL2     0.900000E-01   1.00800           0
      3098 MEMB     28       SLPC     HB       HAL2     0.900000E-01   1.00800           0
      3099 MEMB     28       SLPC     C2       CTL1     0.170000       12.0110           0
      3100 MEMB     28       SLPC     HS       HAL1     0.900000E-01   1.00800           0
      3101 MEMB     28       SLPC     O21      OSL     -0.490000       15.9994           0
      3102 MEMB     28       SLPC     C21      CL       0.900000       12.0110           0
      3103 MEMB     28       SLPC     O22      OBL     -0.630000       15.9994           0
      3104 MEMB     28       SLPC     C22      CTL2    -0.220000       12.0110           0
      3105 MEMB     28       SLPC     H2R      HAL2     0.900000E-01   1.00800           0
      3106 MEMB     28       SLPC     H2S      HAL2     0.900000E-01   1.00800           0
      3107 MEMB     28       SLPC     C3       CTL2     0.800000E-01   12.0110           0
      3108 MEMB     28       SLPC     HX       HAL2     0.900000E-01   1.00800           0
      3109 MEMB     28       SLPC     HY       HAL2     0.900000E-01   1.00800           0
      3110 MEMB     28       SLPC     O31      OSL     -0.490000       15.9994           0
      3111 MEMB     28       SLPC     C31      CL       0.900000       12.0110           0
      3112 MEMB     28       SLPC     O32      OBL     -0.630000       15.9994           0
      3113 MEMB     28       SLPC     C32      CTL2    -0.220000       12.0110           0
      3114 MEMB     28       SLPC     H2X      HAL2     0.900000E-01   1.00800           0
      3115 MEMB     28       SLPC     H2Y      HAL2     0.900000E-01   1.00800           0
      3116 MEMB     28       SLPC     C23      CTL2    -0.180000       12.0110           0
      3117 MEMB     28       SLPC     H3R      HAL2     0.900000E-01   1.00800           0
      3118 MEMB     28       SLPC     H3S      HAL2     0.900000E-01   1.00800           0
      3119 MEMB     28       SLPC     C24      CTL2    -0.180000       12.0110           0
      3120 MEMB     28       SLPC     H4R      HAL2     0.900000E-01   1.00800           0
      3121 MEMB     28       SLPC     H4S      HAL2     0.900000E-01   1.00800           0
      3122 MEMB     28       SLPC     C25      CTL2    -0.180000       12.0110           0
      3123 MEMB     28       SLPC     H5R      HAL2     0.900000E-01   1.00800           0
      3124 MEMB     28       SLPC     H5S      HAL2     0.900000E-01   1.00800           0
      3125 MEMB     28       SLPC     C26      CTL2    -0.180000       12.0110           0
      3126 MEMB     28       SLPC     H6R      HAL2     0.900000E-01   1.00800           0
      3127 MEMB     28       SLPC     H6S      HAL2     0.900000E-01   1.00800           0
      3128 MEMB     28       SLPC     C27      CTL2    -0.180000       12.0110           0
      3129 MEMB     28       SLPC     H7R      HAL2     0.900000E-01   1.00800           0
      3130 MEMB     28       SLPC     H7S      HAL2     0.900000E-01   1.00800           0
      3131 MEMB     28       SLPC     C28      CTL2    -0.180000       12.0110           0
      3132 MEMB     28       SLPC     H8R      HAL2     0.900000E-01   1.00800           0
      3133 MEMB     28       SLPC     H8S      HAL2     0.900000E-01   1.00800           0
      3134 MEMB     28       SLPC     C29      CEL1    -0.150000       12.0110           0
      3135 MEMB     28       SLPC     H9R      HEL1     0.150000       1.00800           0
      3136 MEMB     28       SLPC     C210     CEL1    -0.150000       12.0110           0
      3137 MEMB     28       SLPC     H10R     HEL1     0.150000       1.00800           0
      3138 MEMB     28       SLPC     C211     CTL2    -0.180000       12.0110           0
      3139 MEMB     28       SLPC     H11R     HAL2     0.900000E-01   1.00800           0
      3140 MEMB     28       SLPC     H11S     HAL2     0.900000E-01   1.00800           0
      3141 MEMB     28       SLPC     C212     CEL1    -0.150000       12.0110           0
      3142 MEMB     28       SLPC     H12R     HEL1     0.150000       1.00800           0
      3143 MEMB     28       SLPC     C213     CEL1    -0.150000       12.0110           0
      3144 MEMB     28       SLPC     H13R     HEL1     0.150000       1.00800           0
      3145 MEMB     28       SLPC     C214     CTL2    -0.180000       12.0110           0
      3146 MEMB     28       SLPC     H14R     HAL2     0.900000E-01   1.00800           0
      3147 MEMB     28       SLPC     H14S     HAL2     0.900000E-01   1.00800           0
      3148 MEMB     28       SLPC     C215     CTL2    -0.180000       12.0110           0
      3149 MEMB     28       SLPC     H15R     HAL2     0.900000E-01   1.00800           0
      3150 MEMB     28       SLPC     H15S     HAL2     0.900000E-01   1.00800           0
      3151 MEMB     28       SLPC     C216     CTL2    -0.180000       12.0110           0
      3152 MEMB     28       SLPC     H16R     HAL2     0.900000E-01   1.00800           0
      3153 MEMB     28       SLPC     H16S     HAL2     0.900000E-01   1.00800           0
      3154 MEMB     28       SLPC     C217     CTL2    -0.180000       12.0110           0
      3155 MEMB     28       SLPC     H17R     HAL2     0.900000E-01   1.00800           0
      3156 MEMB     28       SLPC     H17S     HAL2     0.900000E-01   1.00800           0
      3157 MEMB     28       SLPC     C218     CTL3    -0.270000       12.0110           0
      3158 MEMB     28       SLPC     H18R     HAL3     0.900000E-01   1.00800           0
      3159 MEMB     28       SLPC     H18S     HAL3     0.900000E-01   1.00800           0
      3160 MEMB     28       SLPC     H18T     HAL3     0.900000E-01   1.00800           0
      3161 MEMB     28       SLPC     C33      CTL2    -0.180000       12.0110           0
      3162 MEMB     28       SLPC     H3X      HAL2     0.900000E-01   1.00800           0
      3163 MEMB     28       SLPC     H3Y      HAL2     0.900000E-01   1.00800           0
      3164 MEMB     28       SLPC     C34      CTL2    -0.180000       12.0110           0
      3165 MEMB     28       SLPC     H4X      HAL2     0.900000E-01   1.00800           0
      3166 MEMB     28       SLPC     H4Y      HAL2     0.900000E-01   1.00800           0
      3167 MEMB     28       SLPC     C35      CTL2    -0.180000       12.0110           0
      3168 MEMB     28       SLPC     H5X      HAL2     0.900000E-01   1.00800           0
      3169 MEMB     28       SLPC     H5Y      HAL2     0.900000E-01   1.00800           0
      3170 MEMB     28       SLPC     C36      CTL2    -0.180000       12.0110           0
      3171 MEMB     28       SLPC     H6X      HAL2     0.900000E-01   1.00800           0
      3172 MEMB     28       SLPC     H6Y      HAL2     0.900000E-01   1.00800           0
      3173 MEMB     28       SLPC     C37      CTL2    -0.180000       12.0110           0
      3174 MEMB     28       SLPC     H7X      HAL2     0.900000E-01   1.00800           0
      3175 MEMB     28       SLPC     H7Y      HAL2     0.900000E-01   1.00800           0
      3176 MEMB     28       SLPC     C38      CTL2    -0.180000       12.0110           0
      3177 MEMB     28       SLPC     H8X      HAL2     0.900000E-01   1.00800           0
      3178 MEMB     28       SLPC     H8Y      HAL2     0.900000E-01   1.00800           0
      3179 MEMB     28       SLPC     C39      CTL2    -0.180000       12.0110           0
      3180 MEMB     28       SLPC     H9X      HAL2     0.900000E-01   1.00800           0
      3181 MEMB     28       SLPC     H9Y      HAL2     0.900000E-01   1.00800           0
      3182 MEMB     28       SLPC     C310     CTL2    -0.180000       12.0110           0
      3183 MEMB     28       SLPC     H10X     HAL2     0.900000E-01   1.00800           0
      3184 MEMB     28       SLPC     H10Y     HAL2     0.900000E-01   1.00800           0
      3185 MEMB     28       SLPC     C311     CTL2    -0.180000       12.0110           0
      3186 MEMB     28       SLPC     H11X     HAL2     0.900000E-01   1.00800           0
      3187 MEMB     28       SLPC     H11Y     HAL2     0.900000E-01   1.00800           0
      3188 MEMB     28       SLPC     C312     CTL2    -0.180000       12.0110           0
      3189 MEMB     28       SLPC     H12X     HAL2     0.900000E-01   1.00800           0
      3190 MEMB     28       SLPC     H12Y     HAL2     0.900000E-01   1.00800           0
      3191 MEMB     28       SLPC     C313     CTL2    -0.180000       12.0110           0
      3192 MEMB     28       SLPC     H13X     HAL2     0.900000E-01   1.00800           0
      3193 MEMB     28       SLPC     H13Y     HAL2     0.900000E-01   1.00800           0
      3194 MEMB     28       SLPC     C314     CTL2    -0.180000       12.0110           0
      3195 MEMB     28       SLPC     H14X     HAL2     0.900000E-01   1.00800           0
      3196 MEMB     28       SLPC     H14Y     HAL2     0.900000E-01   1.00800           0
      3197 MEMB     28       SLPC     C315     CTL2    -0.180000       12.0110           0
      3198 MEMB     28       SLPC     H15X     HAL2     0.900000E-01   1.00800           0
      3199 MEMB     28       SLPC     H15Y     HAL2     0.900000E-01   1.00800           0
      3200 MEMB     28       SLPC     C316     CTL2    -0.180000       12.0110           0
      3201 MEMB     28       SLPC     H16X     HAL2     0.900000E-01   1.00800           0
      3202 MEMB     28       SLPC     H16Y     HAL2     0.900000E-01   1.00800           0
      3203 MEMB     28       SLPC     C317     CTL2    -0.180000       12.0110           0
      3204 MEMB     28       SLPC     H17X     HAL2     0.900000E-01   1.00800           0
      3205 MEMB     28       SLPC     H17Y     HAL2     0.900000E-01   1.00800           0
      3206 MEMB     28       SLPC     C318     CTL3    -0.270000       12.0110           0
      3207 MEMB     28       SLPC     H18X     HAL3     0.900000E-01   1.00800           0
      3208 MEMB     28       SLPC     H18Y     HAL3     0.900000E-01   1.00800           0
      3209 MEMB     28       SLPC     H18Z     HAL3     0.900000E-01   1.00800           0
      3210 MEMB     29       OSM      N        NTL     -0.600000       14.0070           0
      3211 MEMB     29       OSM      C15      CTL5    -0.350000       12.0110           0
      3212 MEMB     29       OSM      H15A     HL       0.250000       1.00800           0
      3213 MEMB     29       OSM      H15B     HL       0.250000       1.00800           0
      3214 MEMB     29       OSM      H15C     HL       0.250000       1.00800           0
      3215 MEMB     29       OSM      C14      CTL5    -0.350000       12.0110           0
      3216 MEMB     29       OSM      H14A     HL       0.250000       1.00800           0
      3217 MEMB     29       OSM      H14B     HL       0.250000       1.00800           0
      3218 MEMB     29       OSM      H14C     HL       0.250000       1.00800           0
      3219 MEMB     29       OSM      C13      CTL5    -0.350000       12.0110           0
      3220 MEMB     29       OSM      H13A     HL       0.250000       1.00800           0
      3221 MEMB     29       OSM      H13B     HL       0.250000       1.00800           0
      3222 MEMB     29       OSM      H13C     HL       0.250000       1.00800           0
      3223 MEMB     29       OSM      C12      CTL2    -0.100000       12.0110           0
      3224 MEMB     29       OSM      H12A     HL       0.250000       1.00800           0
      3225 MEMB     29       OSM      H12B     HL       0.250000       1.00800           0
      3226 MEMB     29       OSM      C11      CTL2    -0.800000E-01   12.0110           0
      3227 MEMB     29       OSM      H11A     HAL2     0.900000E-01   1.00800           0
      3228 MEMB     29       OSM      H11B     HAL2     0.900000E-01   1.00800           0
      3229 MEMB     29       OSM      P        PL        1.50000       30.9740           0
      3230 MEMB     29       OSM      O13      O2L     -0.780000       15.9994           0
      3231 MEMB     29       OSM      O14      O2L     -0.780000       15.9994           0
      3232 MEMB     29       OSM      O11      OSLP    -0.570000       15.9994           0
      3233 MEMB     29       OSM      O12      OSLP    -0.570000       15.9994           0
      3234 MEMB     29       OSM      C1S      CTL2    -0.800000E-01   12.0110           0
      3235 MEMB     29       OSM      H1S      HAL2     0.900000E-01   1.00800           0
      3236 MEMB     29       OSM      H1T      HAL2     0.900000E-01   1.00800           0
      3237 MEMB     29       OSM      NF       NHL     -0.700000       14.0070           0
      3238 MEMB     29       OSM      HNF      H        0.350000       1.00800           0
      3239 MEMB     29       OSM      C2S      CTL1     0.300000       12.0110           0
      3240 MEMB     29       OSM      H2S      HAL1     0.500000E-01   1.00800           0
      3241 MEMB     29       OSM      C3S      CTO1     0.500000       12.0110           0
      3242 MEMB     29       OSM      H3S      HAL1    -0.110000       1.00800           0
      3243 MEMB     29       OSM      O3       OHL     -0.690000       15.9994           0
      3244 MEMB     29       OSM      HO3      HOL      0.300000       1.00800           0
      3245 MEMB     29       OSM      C4S      CEL3    -0.150000       12.0110           0
      3246 MEMB     29       OSM      H4S      HEL1     0.150000       1.00800           0
      3247 MEMB     29       OSM      C5S      CEL3    -0.150000       12.0110           0
      3248 MEMB     29       OSM      H5S      HEL1     0.150000       1.00800           0
      3249 MEMB     29       OSM      C6S      CTL2    -0.180000       12.0110           0
      3250 MEMB     29       OSM      H6S      HAL2     0.900000E-01   1.00800           0
      3251 MEMB     29       OSM      H6T      HAL2     0.900000E-01   1.00800           0
      3252 MEMB     29       OSM      C7S      CTL2    -0.180000       12.0110           0
      3253 MEMB     29       OSM      H7S      HAL2     0.900000E-01   1.00800           0
      3254 MEMB     29       OSM      H7T      HAL2     0.900000E-01   1.00800           0
      3255 MEMB     29       OSM      C8S      CTL2    -0.180000       12.0110           0
      3256 MEMB     29       OSM      H8S      HAL2     0.900000E-01   1.00800           0
      3257 MEMB     29       OSM      H8T      HAL2     0.900000E-01   1.00800           0
      3258 MEMB     29       OSM      C9S      CTL2    -0.180000       12.0110           0
      3259 MEMB     29       OSM      H9S      HAL2     0.900000E-01   1.00800           0
      3260 MEMB     29       OSM      H9T      HAL2     0.900000E-01   1.00800           0
      3261 MEMB     29       OSM      C10S     CTL2    -0.180000       12.0110           0
      3262 MEMB     29       OSM      H10S     HAL2     0.900000E-01   1.00800           0
      3263 MEMB     29       OSM      H10T     HAL2     0.900000E-01   1.00800           0
      3264 MEMB     29       OSM      C11S     CTL2    -0.180000       12.0110           0
      3265 MEMB     29       OSM      H11S     HAL2     0.900000E-01   1.00800           0
      3266 MEMB     29       OSM      H11T     HAL2     0.900000E-01   1.00800           0
      3267 MEMB     29       OSM      C12S     CTL2    -0.180000       12.0110           0
      3268 MEMB     29       OSM      H12S     HAL2     0.900000E-01   1.00800           0
      3269 MEMB     29       OSM      H12T     HAL2     0.900000E-01   1.00800           0
      3270 MEMB     29       OSM      C13S     CTL2    -0.180000       12.0110           0
      3271 MEMB     29       OSM      H13S     HAL2     0.900000E-01   1.00800           0
      3272 MEMB     29       OSM      H13T     HAL2     0.900000E-01   1.00800           0
      3273 MEMB     29       OSM      C14S     CTL2    -0.180000       12.0110           0
      3274 MEMB     29       OSM      H14S     HAL2     0.900000E-01   1.00800           0
      3275 MEMB     29       OSM      H14T     HAL2     0.900000E-01   1.00800           0
      3276 MEMB     29       OSM      C15S     CTL2    -0.180000       12.0110           0
      3277 MEMB     29       OSM      H15S     HAL2     0.900000E-01   1.00800           0
      3278 MEMB     29       OSM      H15T     HAL2     0.900000E-01   1.00800           0
      3279 MEMB     29       OSM      C16S     CTL2    -0.180000       12.0110           0
      3280 MEMB     29       OSM      H16S     HAL2     0.900000E-01   1.00800           0
      3281 MEMB     29       OSM      H16T     HAL2     0.900000E-01   1.00800           0
      3282 MEMB     29       OSM      C17S     CTL2    -0.180000       12.0110           0
      3283 MEMB     29       OSM      H17S     HAL2     0.900000E-01   1.00800           0
      3284 MEMB     29       OSM      H17T     HAL2     0.900000E-01   1.00800           0
      3285 MEMB     29       OSM      C18S     CTL3    -0.270000       12.0110           0
      3286 MEMB     29       OSM      H18S     HAL3     0.900000E-01   1.00800           0
      3287 MEMB     29       OSM      H18T     HAL3     0.900000E-01   1.00800           0
      3288 MEMB     29       OSM      H18U     HAL3     0.900000E-01   1.00800           0
      3289 MEMB     29       OSM      C1F      C        0.550000       12.0110           0
      3290 MEMB     29       OSM      OF       O       -0.600000       15.9994           0
      3291 MEMB     29       OSM      C2F      CTL2    -0.700000E-01   12.0110           0
      3292 MEMB     29       OSM      H2F      HAL2     0.600000E-01   1.00800           0
      3293 MEMB     29       OSM      H2G      HAL2     0.600000E-01   1.00800           0
      3294 MEMB     29       OSM      C3F      CTL2    -0.180000       12.0110           0
      3295 MEMB     29       OSM      H3F      HAL2     0.900000E-01   1.00800           0
      3296 MEMB     29       OSM      H3G      HAL2     0.900000E-01   1.00800           0
      3297 MEMB     29       OSM      C4F      CTL2    -0.180000       12.0110           0
      3298 MEMB     29       OSM      H4F      HAL2     0.900000E-01   1.00800           0
      3299 MEMB     29       OSM      H4G      HAL2     0.900000E-01   1.00800           0
      3300 MEMB     29       OSM      C5F      CTL2    -0.180000       12.0110           0
      3301 MEMB     29       OSM      H5F      HAL2     0.900000E-01   1.00800           0
      3302 MEMB     29       OSM      H5G      HAL2     0.900000E-01   1.00800           0
      3303 MEMB     29       OSM      C6F      CTL2    -0.180000       12.0110           0
      3304 MEMB     29       OSM      H6F      HAL2     0.900000E-01   1.00800           0
      3305 MEMB     29       OSM      H6G      HAL2     0.900000E-01   1.00800           0
      3306 MEMB     29       OSM      C7F      CTL2    -0.180000       12.0110           0
      3307 MEMB     29       OSM      H7F      HAL2     0.900000E-01   1.00800           0
      3308 MEMB     29       OSM      H7G      HAL2     0.900000E-01   1.00800           0
      3309 MEMB     29       OSM      C8F      CTL2    -0.180000       12.0110           0
      3310 MEMB     29       OSM      H8F      HAL2     0.900000E-01   1.00800           0
      3311 MEMB     29       OSM      H8G      HAL2     0.900000E-01   1.00800           0
      3312 MEMB     29       OSM      C9F      CEL1    -0.150000       12.0110           0
      3313 MEMB     29       OSM      H9F      HEL1     0.150000       1.00800           0
      3314 MEMB     29       OSM      C10F     CEL1    -0.150000       12.0110           0
      3315 MEMB     29       OSM      H10F     HEL1     0.150000       1.00800           0
      3316 MEMB     29       OSM      C11F     CTL2    -0.180000       12.0110           0
      3317 MEMB     29       OSM      H11F     HAL2     0.900000E-01   1.00800           0
      3318 MEMB     29       OSM      H11G     HAL2     0.900000E-01   1.00800           0
      3319 MEMB     29       OSM      C12F     CTL2    -0.180000       12.0110           0
      3320 MEMB     29       OSM      H12F     HAL2     0.900000E-01   1.00800           0
      3321 MEMB     29       OSM      H12G     HAL2     0.900000E-01   1.00800           0
      3322 MEMB     29       OSM      C13F     CTL2    -0.180000       12.0110           0
      3323 MEMB     29       OSM      H13F     HAL2     0.900000E-01   1.00800           0
      3324 MEMB     29       OSM      H13G     HAL2     0.900000E-01   1.00800           0
      3325 MEMB     29       OSM      C14F     CTL2    -0.180000       12.0110           0
      3326 MEMB     29       OSM      H14F     HAL2     0.900000E-01   1.00800           0
      3327 MEMB     29       OSM      H14G     HAL2     0.900000E-01   1.00800           0
      3328 MEMB     29       OSM      C15F     CTL2    -0.180000       12.0110           0
      3329 MEMB     29       OSM      H15F     HAL2     0.900000E-01   1.00800           0
      3330 MEMB     29       OSM      H15G     HAL2     0.900000E-01   1.00800           0
      3331 MEMB     29       OSM      C16F     CTL2    -0.180000       12.0110           0
      3332 MEMB     29       OSM      H16F     HAL2     0.900000E-01   1.00800           0
      3333 MEMB     29       OSM      H16G     HAL2     0.900000E-01   1.00800           0
      3334 MEMB     29       OSM      C17F     CTL2    -0.180000       12.0110           0
      3335 MEMB     29       OSM      H17F     HAL2     0.900000E-01   1.00800           0
      3336 MEMB     29       OSM      H17G     HAL2     0.900000E-01   1.00800           0
      3337 MEMB     29       OSM      C18F     CTL3    -0.270000       12.0110           0
      3338 MEMB     29       OSM      H18F     HAL3     0.900000E-01   1.00800           0
      3339 MEMB     29       OSM      H18G     HAL3     0.900000E-01   1.00800           0
      3340 MEMB     29       OSM      H18H     HAL3     0.900000E-01   1.00800           0
      3341 MEMB     30       OSM      N        NTL     -0.600000       14.0070           0
      3342 MEMB     30       OSM      C15      CTL5    -0.350000       12.0110           0
      3343 MEMB     30       OSM      H15A     HL       0.250000       1.00800           0
      3344 MEMB     30       OSM      H15B     HL       0.250000       1.00800           0
      3345 MEMB     30       OSM      H15C     HL       0.250000       1.00800           0
      3346 MEMB     30       OSM      C14      CTL5    -0.350000       12.0110           0
      3347 MEMB     30       OSM      H14A     HL       0.250000       1.00800           0
      3348 MEMB     30       OSM      H14B     HL       0.250000       1.00800           0
      3349 MEMB     30       OSM      H14C     HL       0.250000       1.00800           0
      3350 MEMB     30       OSM      C13      CTL5    -0.350000       12.0110           0
      3351 MEMB     30       OSM      H13A     HL       0.250000       1.00800           0
      3352 MEMB     30       OSM      H13B     HL       0.250000       1.00800           0
      3353 MEMB     30       OSM      H13C     HL       0.250000       1.00800           0
      3354 MEMB     30       OSM      C12      CTL2    -0.100000       12.0110           0
      3355 MEMB     30       OSM      H12A     HL       0.250000       1.00800           0
      3356 MEMB     30       OSM      H12B     HL       0.250000       1.00800           0
      3357 MEMB     30       OSM      C11      CTL2    -0.800000E-01   12.0110           0
      3358 MEMB     30       OSM      H11A     HAL2     0.900000E-01   1.00800           0
      3359 MEMB     30       OSM      H11B     HAL2     0.900000E-01   1.00800           0
      3360 MEMB     30       OSM      P        PL        1.50000       30.9740           0
      3361 MEMB     30       OSM      O13      O2L     -0.780000       15.9994           0
      3362 MEMB     30       OSM      O14      O2L     -0.780000       15.9994           0
      3363 MEMB     30       OSM      O11      OSLP    -0.570000       15.9994           0
      3364 MEMB     30       OSM      O12      OSLP    -0.570000       15.9994           0
      3365 MEMB     30       OSM      C1S      CTL2    -0.800000E-01   12.0110           0
      3366 MEMB     30       OSM      H1S      HAL2     0.900000E-01   1.00800           0
      3367 MEMB     30       OSM      H1T      HAL2     0.900000E-01   1.00800           0
      3368 MEMB     30       OSM      NF       NHL     -0.700000       14.0070           0
      3369 MEMB     30       OSM      HNF      H        0.350000       1.00800           0
      3370 MEMB     30       OSM      C2S      CTL1     0.300000       12.0110           0
      3371 MEMB     30       OSM      H2S      HAL1     0.500000E-01   1.00800           0
      3372 MEMB     30       OSM      C3S      CTO1     0.500000       12.0110           0
      3373 MEMB     30       OSM      H3S      HAL1    -0.110000       1.00800           0
      3374 MEMB     30       OSM      O3       OHL     -0.690000       15.9994           0
      3375 MEMB     30       OSM      HO3      HOL      0.300000       1.00800           0
      3376 MEMB     30       OSM      C4S      CEL3    -0.150000       12.0110           0
      3377 MEMB     30       OSM      H4S      HEL1     0.150000       1.00800           0
      3378 MEMB     30       OSM      C5S      CEL3    -0.150000       12.0110           0
      3379 MEMB     30       OSM      H5S      HEL1     0.150000       1.00800           0
      3380 MEMB     30       OSM      C6S      CTL2    -0.180000       12.0110           0
      3381 MEMB     30       OSM      H6S      HAL2     0.900000E-01   1.00800           0
      3382 MEMB     30       OSM      H6T      HAL2     0.900000E-01   1.00800           0
      3383 MEMB     30       OSM      C7S      CTL2    -0.180000       12.0110           0
      3384 MEMB     30       OSM      H7S      HAL2     0.900000E-01   1.00800           0
      3385 MEMB     30       OSM      H7T      HAL2     0.900000E-01   1.00800           0
      3386 MEMB     30       OSM      C8S      CTL2    -0.180000       12.0110           0
      3387 MEMB     30       OSM      H8S      HAL2     0.900000E-01   1.00800           0
      3388 MEMB     30       OSM      H8T      HAL2     0.900000E-01   1.00800           0
      3389 MEMB     30       OSM      C9S      CTL2    -0.180000       12.0110           0
      3390 MEMB     30       OSM      H9S      HAL2     0.900000E-01   1.00800           0
      3391 MEMB     30       OSM      H9T      HAL2     0.900000E-01   1.00800           0
      3392 MEMB     30       OSM      C10S     CTL2    -0.180000       12.0110           0
      3393 MEMB     30       OSM      H10S     HAL2     0.900000E-01   1.00800           0
      3394 MEMB     30       OSM      H10T     HAL2     0.900000E-01   1.00800           0
      3395 MEMB     30       OSM      C11S     CTL2    -0.180000       12.0110           0
      3396 MEMB     30       OSM      H11S     HAL2     0.900000E-01   1.00800           0
      3397 MEMB     30       OSM      H11T     HAL2     0.900000E-01   1.00800           0
      3398 MEMB     30       OSM      C12S     CTL2    -0.180000       12.0110           0
      3399 MEMB     30       OSM      H12S     HAL2     0.900000E-01   1.00800           0
      3400 MEMB     30       OSM      H12T     HAL2     0.900000E-01   1.00800           0
      3401 MEMB     30       OSM      C13S     CTL2    -0.180000       12.0110           0
      3402 MEMB     30       OSM      H13S     HAL2     0.900000E-01   1.00800           0
      3403 MEMB     30       OSM      H13T     HAL2     0.900000E-01   1.00800           0
      3404 MEMB     30       OSM      C14S     CTL2    -0.180000       12.0110           0
      3405 MEMB     30       OSM      H14S     HAL2     0.900000E-01   1.00800           0
      3406 MEMB     30       OSM      H14T     HAL2     0.900000E-01   1.00800           0
      3407 MEMB     30       OSM      C15S     CTL2    -0.180000       12.0110           0
      3408 MEMB     30       OSM      H15S     HAL2     0.900000E-01   1.00800           0
      3409 MEMB     30       OSM      H15T     HAL2     0.900000E-01   1.00800           0
      3410 MEMB     30       OSM      C16S     CTL2    -0.180000       12.0110           0
      3411 MEMB     30       OSM      H16S     HAL2     0.900000E-01   1.00800           0
      3412 MEMB     30       OSM      H16T     HAL2     0.900000E-01   1.00800           0
      3413 MEMB     30       OSM      C17S     CTL2    -0.180000       12.0110           0
      3414 MEMB     30       OSM      H17S     HAL2     0.900000E-01   1.00800           0
      3415 MEMB     30       OSM      H17T     HAL2     0.900000E-01   1.00800           0
      3416 MEMB     30       OSM      C18S     CTL3    -0.270000       12.0110           0
      3417 MEMB     30       OSM      H18S     HAL3     0.900000E-01   1.00800           0
      3418 MEMB     30       OSM      H18T     HAL3     0.900000E-01   1.00800           0
      3419 MEMB     30       OSM      H18U     HAL3     0.900000E-01   1.00800           0
      3420 MEMB     30       OSM      C1F      C        0.550000       12.0110           0
      3421 MEMB     30       OSM      OF       O       -0.600000       15.9994           0
      3422 MEMB     30       OSM      C2F      CTL2    -0.700000E-01   12.0110           0
      3423 MEMB     30       OSM      H2F      HAL2     0.600000E-01   1.00800           0
      3424 MEMB     30       OSM      H2G      HAL2     0.600000E-01   1.00800           0
      3425 MEMB     30       OSM      C3F      CTL2    -0.180000       12.0110           0
      3426 MEMB     30       OSM      H3F      HAL2     0.900000E-01   1.00800           0
      3427 MEMB     30       OSM      H3G      HAL2     0.900000E-01   1.00800           0
      3428 MEMB     30       OSM      C4F      CTL2    -0.180000       12.0110           0
      3429 MEMB     30       OSM      H4F      HAL2     0.900000E-01   1.00800           0
      3430 MEMB     30       OSM      H4G      HAL2     0.900000E-01   1.00800           0
      3431 MEMB     30       OSM      C5F      CTL2    -0.180000       12.0110           0
      3432 MEMB     30       OSM      H5F      HAL2     0.900000E-01   1.00800           0
      3433 MEMB     30       OSM      H5G      HAL2     0.900000E-01   1.00800           0
      3434 MEMB     30       OSM      C6F      CTL2    -0.180000       12.0110           0
      3435 MEMB     30       OSM      H6F      HAL2     0.900000E-01   1.00800           0
      3436 MEMB     30       OSM      H6G      HAL2     0.900000E-01   1.00800           0
      3437 MEMB     30       OSM      C7F      CTL2    -0.180000       12.0110           0
      3438 MEMB     30       OSM      H7F      HAL2     0.900000E-01   1.00800           0
      3439 MEMB     30       OSM      H7G      HAL2     0.900000E-01   1.00800           0
      3440 MEMB     30       OSM      C8F      CTL2    -0.180000       12.0110           0
      3441 MEMB     30       OSM      H8F      HAL2     0.900000E-01   1.00800           0
      3442 MEMB     30       OSM      H8G      HAL2     0.900000E-01   1.00800           0
      3443 MEMB     30       OSM      C9F      CEL1    -0.150000       12.0110           0
      3444 MEMB     30       OSM      H9F      HEL1     0.150000       1.00800           0
      3445 MEMB     30       OSM      C10F     CEL1    -0.150000       12.0110           0
      3446 MEMB     30       OSM      H10F     HEL1     0.150000       1.00800           0
      3447 MEMB     30       OSM      C11F     CTL2    -0.180000       12.0110           0
      3448 MEMB     30       OSM      H11F     HAL2     0.900000E-01   1.00800           0
      3449 MEMB     30       OSM      H11G     HAL2     0.900000E-01   1.00800           0
      3450 MEMB     30       OSM      C12F     CTL2    -0.180000       12.0110           0
      3451 MEMB     30       OSM      H12F     HAL2     0.900000E-01   1.00800           0
      3452 MEMB     30       OSM      H12G     HAL2     0.900000E-01   1.00800           0
      3453 MEMB     30       OSM      C13F     CTL2    -0.180000       12.0110           0
      3454 MEMB     30       OSM      H13F     HAL2     0.900000E-01   1.00800           0
      3455 MEMB     30       OSM      H13G     HAL2     0.900000E-01   1.00800           0
      3456 MEMB     30       OSM      C14F     CTL2    -0.180000       12.0110           0
      3457 MEMB     30       OSM      H14F     HAL2     0.900000E-01   1.00800           0
      3458 MEMB     30       OSM      H14G     HAL2     0.900000E-01   1.00800           0
      3459 MEMB     30       OSM      C15F     CTL2    -0.180000       12.0110           0
      3460 MEMB     30       OSM      H15F     HAL2     0.900000E-01   1.00800           0
      3461 MEMB     30       OSM      H15G     HAL2     0.900000E-01   1.00800           0
      3462 MEMB     30       OSM      C16F     CTL2    -0.180000       12.0110           0
      3463 MEMB     30       OSM      H16F     HAL2     0.900000E-01   1.00800           0
      3464 MEMB     30       OSM      H16G     HAL2     0.900000E-01   1.00800           0
      3465 MEMB     30       OSM      C17F     CTL2    -0.180000       12.0110           0
      3466 MEMB     30       OSM      H17F     HAL2     0.900000E-01   1.00800           0
      3467 MEMB     30       OSM      H17G     HAL2     0.900000E-01   1.00800           0
      3468 MEMB     30       OSM      C18F     CTL3    -0.270000       12.0110           0
      3469 MEMB     30       OSM      H18F     HAL3     0.900000E-01   1.00800           0
      3470 MEMB     30       OSM      H18G     HAL3     0.900000E-01   1.00800           0
      3471 MEMB     30       OSM      H18H     HAL3     0.900000E-01   1.00800           0
      3472 MEMB     31       SAPS     N        NH3L    -0.300000       14.0070           0
      3473 MEMB     31       SAPS     HN1      HCL      0.330000       1.00800           0
      3474 MEMB     31       SAPS     HN2      HCL      0.330000       1.00800           0
      3475 MEMB     31       SAPS     HN3      HCL      0.330000       1.00800           0
      3476 MEMB     31       SAPS     C12      CTL1     0.210000       12.0110           0
      3477 MEMB     31       SAPS     H12A     HBL      0.100000       1.00800           0
      3478 MEMB     31       SAPS     C13      CCL      0.340000       12.0110           0
      3479 MEMB     31       SAPS     O13A     OCL     -0.670000       15.9994           0
      3480 MEMB     31       SAPS     O13B     OCL     -0.670000       15.9994           0
      3481 MEMB     31       SAPS     C11      CTL2    -0.800000E-01   12.0110           0
      3482 MEMB     31       SAPS     H11A     HAL2     0.900000E-01   1.00800           0
      3483 MEMB     31       SAPS     H11B     HAL2     0.900000E-01   1.00800           0
      3484 MEMB     31       SAPS     P        PL        1.50000       30.9740           0
      3485 MEMB     31       SAPS     O13      O2L     -0.780000       15.9994           0
      3486 MEMB     31       SAPS     O14      O2L     -0.780000       15.9994           0
      3487 MEMB     31       SAPS     O12      OSLP    -0.570000       15.9994           0
      3488 MEMB     31       SAPS     O11      OSLP    -0.570000       15.9994           0
      3489 MEMB     31       SAPS     C1       CTL2    -0.800000E-01   12.0110           0
      3490 MEMB     31       SAPS     HA       HAL2     0.900000E-01   1.00800           0
      3491 MEMB     31       SAPS     HB       HAL2     0.900000E-01   1.00800           0
      3492 MEMB     31       SAPS     C2       CTL1     0.170000       12.0110           0
      3493 MEMB     31       SAPS     HS       HAL1     0.900000E-01   1.00800           0
      3494 MEMB     31       SAPS     O21      OSL     -0.490000       15.9994           0
      3495 MEMB     31       SAPS     C21      CL       0.900000       12.0110           0
      3496 MEMB     31       SAPS     O22      OBL     -0.630000       15.9994           0
      3497 MEMB     31       SAPS     C22      CTL2    -0.220000       12.0110           0
      3498 MEMB     31       SAPS     H2R      HAL2     0.900000E-01   1.00800           0
      3499 MEMB     31       SAPS     H2S      HAL2     0.900000E-01   1.00800           0
      3500 MEMB     31       SAPS     C3       CTL2     0.800000E-01   12.0110           0
      3501 MEMB     31       SAPS     HX       HAL2     0.900000E-01   1.00800           0
      3502 MEMB     31       SAPS     HY       HAL2     0.900000E-01   1.00800           0
      3503 MEMB     31       SAPS     O31      OSL     -0.490000       15.9994           0
      3504 MEMB     31       SAPS     C31      CL       0.900000       12.0110           0
      3505 MEMB     31       SAPS     O32      OBL     -0.630000       15.9994           0
      3506 MEMB     31       SAPS     C32      CTL2    -0.220000       12.0110           0
      3507 MEMB     31       SAPS     H2X      HAL2     0.900000E-01   1.00800           0
      3508 MEMB     31       SAPS     H2Y      HAL2     0.900000E-01   1.00800           0
      3509 MEMB     31       SAPS     C23      CTL2    -0.180000       12.0110           0
      3510 MEMB     31       SAPS     H3R      HAL2     0.900000E-01   1.00800           0
      3511 MEMB     31       SAPS     H3S      HAL2     0.900000E-01   1.00800           0
      3512 MEMB     31       SAPS     C24      CTL2    -0.180000       12.0110           0
      3513 MEMB     31       SAPS     H4R      HAL2     0.900000E-01   1.00800           0
      3514 MEMB     31       SAPS     H4S      HAL2     0.900000E-01   1.00800           0
      3515 MEMB     31       SAPS     C25      CEL1    -0.150000       12.0110           0
      3516 MEMB     31       SAPS     H5R      HEL1     0.150000       1.00800           0
      3517 MEMB     31       SAPS     C26      CEL1    -0.150000       12.0110           0
      3518 MEMB     31       SAPS     H6R      HEL1     0.150000       1.00800           0
      3519 MEMB     31       SAPS     C27      CTL2    -0.180000       12.0110           0
      3520 MEMB     31       SAPS     H7R      HAL2     0.900000E-01   1.00800           0
      3521 MEMB     31       SAPS     H7S      HAL2     0.900000E-01   1.00800           0
      3522 MEMB     31       SAPS     C28      CEL1    -0.150000       12.0110           0
      3523 MEMB     31       SAPS     H8R      HEL1     0.150000       1.00800           0
      3524 MEMB     31       SAPS     C29      CEL1    -0.150000       12.0110           0
      3525 MEMB     31       SAPS     H9R      HEL1     0.150000       1.00800           0
      3526 MEMB     31       SAPS     C210     CTL2    -0.180000       12.0110           0
      3527 MEMB     31       SAPS     H10R     HAL2     0.900000E-01   1.00800           0
      3528 MEMB     31       SAPS     H10S     HAL2     0.900000E-01   1.00800           0
      3529 MEMB     31       SAPS     C211     CEL1    -0.150000       12.0110           0
      3530 MEMB     31       SAPS     H11R     HEL1     0.150000       1.00800           0
      3531 MEMB     31       SAPS     C212     CEL1    -0.150000       12.0110           0
      3532 MEMB     31       SAPS     H12R     HEL1     0.150000       1.00800           0
      3533 MEMB     31       SAPS     C213     CTL2    -0.180000       12.0110           0
      3534 MEMB     31       SAPS     H13R     HAL2     0.900000E-01   1.00800           0
      3535 MEMB     31       SAPS     H13S     HAL2     0.900000E-01   1.00800           0
      3536 MEMB     31       SAPS     C214     CEL1    -0.150000       12.0110           0
      3537 MEMB     31       SAPS     H14R     HEL1     0.150000       1.00800           0
      3538 MEMB     31       SAPS     C215     CEL1    -0.150000       12.0110           0
      3539 MEMB     31       SAPS     H15R     HEL1     0.150000       1.00800           0
      3540 MEMB     31       SAPS     C216     CTL2    -0.180000       12.0110           0
      3541 MEMB     31       SAPS     H16R     HAL2     0.900000E-01   1.00800           0
      3542 MEMB     31       SAPS     H16S     HAL2     0.900000E-01   1.00800           0
      3543 MEMB     31       SAPS     C217     CTL2    -0.180000       12.0110           0
      3544 MEMB     31       SAPS     H17R     HAL2     0.900000E-01   1.00800           0
      3545 MEMB     31       SAPS     H17S     HAL2     0.900000E-01   1.00800           0
      3546 MEMB     31       SAPS     C218     CTL2    -0.180000       12.0110           0
      3547 MEMB     31       SAPS     H18R     HAL2     0.900000E-01   1.00800           0
      3548 MEMB     31       SAPS     H18S     HAL2     0.900000E-01   1.00800           0
      3549 MEMB     31       SAPS     C219     CTL2    -0.180000       12.0110           0
      3550 MEMB     31       SAPS     H19R     HAL2     0.900000E-01   1.00800           0
      3551 MEMB     31       SAPS     H19S     HAL2     0.900000E-01   1.00800           0
      3552 MEMB     31       SAPS     C220     CTL3    -0.270000       12.0110           0
      3553 MEMB     31       SAPS     H20R     HAL3     0.900000E-01   1.00800           0
      3554 MEMB     31       SAPS     H20S     HAL3     0.900000E-01   1.00800           0
      3555 MEMB     31       SAPS     H20T     HAL3     0.900000E-01   1.00800           0
      3556 MEMB     31       SAPS     C33      CTL2    -0.180000       12.0110           0
      3557 MEMB     31       SAPS     H3X      HAL2     0.900000E-01   1.00800           0
      3558 MEMB     31       SAPS     H3Y      HAL2     0.900000E-01   1.00800           0
      3559 MEMB     31       SAPS     C34      CTL2    -0.180000       12.0110           0
      3560 MEMB     31       SAPS     H4X      HAL2     0.900000E-01   1.00800           0
      3561 MEMB     31       SAPS     H4Y      HAL2     0.900000E-01   1.00800           0
      3562 MEMB     31       SAPS     C35      CTL2    -0.180000       12.0110           0
      3563 MEMB     31       SAPS     H5X      HAL2     0.900000E-01   1.00800           0
      3564 MEMB     31       SAPS     H5Y      HAL2     0.900000E-01   1.00800           0
      3565 MEMB     31       SAPS     C36      CTL2    -0.180000       12.0110           0
      3566 MEMB     31       SAPS     H6X      HAL2     0.900000E-01   1.00800           0
      3567 MEMB     31       SAPS     H6Y      HAL2     0.900000E-01   1.00800           0
      3568 MEMB     31       SAPS     C37      CTL2    -0.180000       12.0110           0
      3569 MEMB     31       SAPS     H7X      HAL2     0.900000E-01   1.00800           0
      3570 MEMB     31       SAPS     H7Y      HAL2     0.900000E-01   1.00800           0
      3571 MEMB     31       SAPS     C38      CTL2    -0.180000       12.0110           0
      3572 MEMB     31       SAPS     H8X      HAL2     0.900000E-01   1.00800           0
      3573 MEMB     31       SAPS     H8Y      HAL2     0.900000E-01   1.00800           0
      3574 MEMB     31       SAPS     C39      CTL2    -0.180000       12.0110           0
      3575 MEMB     31       SAPS     H9X      HAL2     0.900000E-01   1.00800           0
      3576 MEMB     31       SAPS     H9Y      HAL2     0.900000E-01   1.00800           0
      3577 MEMB     31       SAPS     C310     CTL2    -0.180000       12.0110           0
      3578 MEMB     31       SAPS     H10X     HAL2     0.900000E-01   1.00800           0
      3579 MEMB     31       SAPS     H10Y     HAL2     0.900000E-01   1.00800           0
      3580 MEMB     31       SAPS     C311     CTL2    -0.180000       12.0110           0
      3581 MEMB     31       SAPS     H11X     HAL2     0.900000E-01   1.00800           0
      3582 MEMB     31       SAPS     H11Y     HAL2     0.900000E-01   1.00800           0
      3583 MEMB     31       SAPS     C312     CTL2    -0.180000       12.0110           0
      3584 MEMB     31       SAPS     H12X     HAL2     0.900000E-01   1.00800           0
      3585 MEMB     31       SAPS     H12Y     HAL2     0.900000E-01   1.00800           0
      3586 MEMB     31       SAPS     C313     CTL2    -0.180000       12.0110           0
      3587 MEMB     31       SAPS     H13X     HAL2     0.900000E-01   1.00800           0
      3588 MEMB     31       SAPS     H13Y     HAL2     0.900000E-01   1.00800           0
      3589 MEMB     31       SAPS     C314     CTL2    -0.180000       12.0110           0
      3590 MEMB     31       SAPS     H14X     HAL2     0.900000E-01   1.00800           0
      3591 MEMB     31       SAPS     H14Y     HAL2     0.900000E-01   1.00800           0
      3592 MEMB     31       SAPS     C315     CTL2    -0.180000       12.0110           0
      3593 MEMB     31       SAPS     H15X     HAL2     0.900000E-01   1.00800           0
      3594 MEMB     31       SAPS     H15Y     HAL2     0.900000E-01   1.00800           0
      3595 MEMB     31       SAPS     C316     CTL2    -0.180000       12.0110           0
      3596 MEMB     31       SAPS     H16X     HAL2     0.900000E-01   1.00800           0
      3597 MEMB     31       SAPS     H16Y     HAL2     0.900000E-01   1.00800           0
      3598 MEMB     31       SAPS     C317     CTL2    -0.180000       12.0110           0
      3599 MEMB     31       SAPS     H17X     HAL2     0.900000E-01   1.00800           0
      3600 MEMB     31       SAPS     H17Y     HAL2     0.900000E-01   1.00800           0
      3601 MEMB     31       SAPS     C318     CTL3    -0.270000       12.0110           0
      3602 MEMB     31       SAPS     H18X     HAL3     0.900000E-01   1.00800           0
      3603 MEMB     31       SAPS     H18Y     HAL3     0.900000E-01   1.00800           0
      3604 MEMB     31       SAPS     H18Z     HAL3     0.900000E-01   1.00800           0
      3605 MEMB     32       SLPC     N        NTL     -0.600000       14.0070           0
      3606 MEMB     32       SLPC     C13      CTL5    -0.350000       12.0110           0
      3607 MEMB     32       SLPC     H13A     HL       0.250000       1.00800           0
      3608 MEMB     32       SLPC     H13B     HL       0.250000       1.00800           0
      3609 MEMB     32       SLPC     H13C     HL       0.250000       1.00800           0
      3610 MEMB     32       SLPC     C14      CTL5    -0.350000       12.0110           0
      3611 MEMB     32       SLPC     H14A     HL       0.250000       1.00800           0
      3612 MEMB     32       SLPC     H14B     HL       0.250000       1.00800           0
      3613 MEMB     32       SLPC     H14C     HL       0.250000       1.00800           0
      3614 MEMB     32       SLPC     C15      CTL5    -0.350000       12.0110           0
      3615 MEMB     32       SLPC     H15A     HL       0.250000       1.00800           0
      3616 MEMB     32       SLPC     H15B     HL       0.250000       1.00800           0
      3617 MEMB     32       SLPC     H15C     HL       0.250000       1.00800           0
      3618 MEMB     32       SLPC     C12      CTL2    -0.100000       12.0110           0
      3619 MEMB     32       SLPC     H12A     HL       0.250000       1.00800           0
      3620 MEMB     32       SLPC     H12B     HL       0.250000       1.00800           0
      3621 MEMB     32       SLPC     C11      CTL2    -0.800000E-01   12.0110           0
      3622 MEMB     32       SLPC     H11A     HAL2     0.900000E-01   1.00800           0
      3623 MEMB     32       SLPC     H11B     HAL2     0.900000E-01   1.00800           0
      3624 MEMB     32       SLPC     P        PL        1.50000       30.9740           0
      3625 MEMB     32       SLPC     O13      O2L     -0.780000       15.9994           0
      3626 MEMB     32       SLPC     O14      O2L     -0.780000       15.9994           0
      3627 MEMB     32       SLPC     O12      OSLP    -0.570000       15.9994           0
      3628 MEMB     32       SLPC     O11      OSLP    -0.570000       15.9994           0
      3629 MEMB     32       SLPC     C1       CTL2    -0.800000E-01   12.0110           0
      3630 MEMB     32       SLPC     HA       HAL2     0.900000E-01   1.00800           0
      3631 MEMB     32       SLPC     HB       HAL2     0.900000E-01   1.00800           0
      3632 MEMB     32       SLPC     C2       CTL1     0.170000       12.0110           0
      3633 MEMB     32       SLPC     HS       HAL1     0.900000E-01   1.00800           0
      3634 MEMB     32       SLPC     O21      OSL     -0.490000       15.9994           0
      3635 MEMB     32       SLPC     C21      CL       0.900000       12.0110           0
      3636 MEMB     32       SLPC     O22      OBL     -0.630000       15.9994           0
      3637 MEMB     32       SLPC     C22      CTL2    -0.220000       12.0110           0
      3638 MEMB     32       SLPC     H2R      HAL2     0.900000E-01   1.00800           0
      3639 MEMB     32       SLPC     H2S      HAL2     0.900000E-01   1.00800           0
      3640 MEMB     32       SLPC     C3       CTL2     0.800000E-01   12.0110           0
      3641 MEMB     32       SLPC     HX       HAL2     0.900000E-01   1.00800           0
      3642 MEMB     32       SLPC     HY       HAL2     0.900000E-01   1.00800           0
      3643 MEMB     32       SLPC     O31      OSL     -0.490000       15.9994           0
      3644 MEMB     32       SLPC     C31      CL       0.900000       12.0110           0
      3645 MEMB     32       SLPC     O32      OBL     -0.630000       15.9994           0
      3646 MEMB     32       SLPC     C32      CTL2    -0.220000       12.0110           0
      3647 MEMB     32       SLPC     H2X      HAL2     0.900000E-01   1.00800           0
      3648 MEMB     32       SLPC     H2Y      HAL2     0.900000E-01   1.00800           0
      3649 MEMB     32       SLPC     C23      CTL2    -0.180000       12.0110           0
      3650 MEMB     32       SLPC     H3R      HAL2     0.900000E-01   1.00800           0
      3651 MEMB     32       SLPC     H3S      HAL2     0.900000E-01   1.00800           0
      3652 MEMB     32       SLPC     C24      CTL2    -0.180000       12.0110           0
      3653 MEMB     32       SLPC     H4R      HAL2     0.900000E-01   1.00800           0
      3654 MEMB     32       SLPC     H4S      HAL2     0.900000E-01   1.00800           0
      3655 MEMB     32       SLPC     C25      CTL2    -0.180000       12.0110           0
      3656 MEMB     32       SLPC     H5R      HAL2     0.900000E-01   1.00800           0
      3657 MEMB     32       SLPC     H5S      HAL2     0.900000E-01   1.00800           0
      3658 MEMB     32       SLPC     C26      CTL2    -0.180000       12.0110           0
      3659 MEMB     32       SLPC     H6R      HAL2     0.900000E-01   1.00800           0
      3660 MEMB     32       SLPC     H6S      HAL2     0.900000E-01   1.00800           0
      3661 MEMB     32       SLPC     C27      CTL2    -0.180000       12.0110           0
      3662 MEMB     32       SLPC     H7R      HAL2     0.900000E-01   1.00800           0
      3663 MEMB     32       SLPC     H7S      HAL2     0.900000E-01   1.00800           0
      3664 MEMB     32       SLPC     C28      CTL2    -0.180000       12.0110           0
      3665 MEMB     32       SLPC     H8R      HAL2     0.900000E-01   1.00800           0
      3666 MEMB     32       SLPC     H8S      HAL2     0.900000E-01   1.00800           0
      3667 MEMB     32       SLPC     C29      CEL1    -0.150000       12.0110           0
      3668 MEMB     32       SLPC     H9R      HEL1     0.150000       1.00800           0
      3669 MEMB     32       SLPC     C210     CEL1    -0.150000       12.0110           0
      3670 MEMB     32       SLPC     H10R     HEL1     0.150000       1.00800           0
      3671 MEMB     32       SLPC     C211     CTL2    -0.180000       12.0110           0
      3672 MEMB     32       SLPC     H11R     HAL2     0.900000E-01   1.00800           0
      3673 MEMB     32       SLPC     H11S     HAL2     0.900000E-01   1.00800           0
      3674 MEMB     32       SLPC     C212     CEL1    -0.150000       12.0110           0
      3675 MEMB     32       SLPC     H12R     HEL1     0.150000       1.00800           0
      3676 MEMB     32       SLPC     C213     CEL1    -0.150000       12.0110           0
      3677 MEMB     32       SLPC     H13R     HEL1     0.150000       1.00800           0
      3678 MEMB     32       SLPC     C214     CTL2    -0.180000       12.0110           0
      3679 MEMB     32       SLPC     H14R     HAL2     0.900000E-01   1.00800           0
      3680 MEMB     32       SLPC     H14S     HAL2     0.900000E-01   1.00800           0
      3681 MEMB     32       SLPC     C215     CTL2    -0.180000       12.0110           0
      3682 MEMB     32       SLPC     H15R     HAL2     0.900000E-01   1.00800           0
      3683 MEMB     32       SLPC     H15S     HAL2     0.900000E-01   1.00800           0
      3684 MEMB     32       SLPC     C216     CTL2    -0.180000       12.0110           0
      3685 MEMB     32       SLPC     H16R     HAL2     0.900000E-01   1.00800           0
      3686 MEMB     32       SLPC     H16S     HAL2     0.900000E-01   1.00800           0
      3687 MEMB     32       SLPC     C217     CTL2    -0.180000       12.0110           0
      3688 MEMB     32       SLPC     H17R     HAL2     0.900000E-01   1.00800           0
      3689 MEMB     32       SLPC     H17S     HAL2     0.900000E-01   1.00800           0
      3690 MEMB     32       SLPC     C218     CTL3    -0.270000       12.0110           0
      3691 MEMB     32       SLPC     H18R     HAL3     0.900000E-01   1.00800           0
      3692 MEMB     32       SLPC     H18S     HAL3     0.900000E-01   1.00800           0
      3693 MEMB     32       SLPC     H18T     HAL3     0.900000E-01   1.00800           0
      3694 MEMB     32       SLPC     C33      CTL2    -0.180000       12.0110           0
      3695 MEMB     32       SLPC     H3X      HAL2     0.900000E-01   1.00800           0
      3696 MEMB     32       SLPC     H3Y      HAL2     0.900000E-01   1.00800           0
      3697 MEMB     32       SLPC     C34      CTL2    -0.180000       12.0110           0
      3698 MEMB     32       SLPC     H4X      HAL2     0.900000E-01   1.00800           0
      3699 MEMB     32       SLPC     H4Y      HAL2     0.900000E-01   1.00800           0
      3700 MEMB     32       SLPC     C35      CTL2    -0.180000       12.0110           0
      3701 MEMB     32       SLPC     H5X      HAL2     0.900000E-01   1.00800           0
      3702 MEMB     32       SLPC     H5Y      HAL2     0.900000E-01   1.00800           0
      3703 MEMB     32       SLPC     C36      CTL2    -0.180000       12.0110           0
      3704 MEMB     32       SLPC     H6X      HAL2     0.900000E-01   1.00800           0
      3705 MEMB     32       SLPC     H6Y      HAL2     0.900000E-01   1.00800           0
      3706 MEMB     32       SLPC     C37      CTL2    -0.180000       12.0110           0
      3707 MEMB     32       SLPC     H7X      HAL2     0.900000E-01   1.00800           0
      3708 MEMB     32       SLPC     H7Y      HAL2     0.900000E-01   1.00800           0
      3709 MEMB     32       SLPC     C38      CTL2    -0.180000       12.0110           0
      3710 MEMB     32       SLPC     H8X      HAL2     0.900000E-01   1.00800           0
      3711 MEMB     32       SLPC     H8Y      HAL2     0.900000E-01   1.00800           0
      3712 MEMB     32       SLPC     C39      CTL2    -0.180000       12.0110           0
      3713 MEMB     32       SLPC     H9X      HAL2     0.900000E-01   1.00800           0
      3714 MEMB     32       SLPC     H9Y      HAL2     0.900000E-01   1.00800           0
      3715 MEMB     32       SLPC     C310     CTL2    -0.180000       12.0110           0
      3716 MEMB     32       SLPC     H10X     HAL2     0.900000E-01   1.00800           0
      3717 MEMB     32       SLPC     H10Y     HAL2     0.900000E-01   1.00800           0
      3718 MEMB     32       SLPC     C311     CTL2    -0.180000       12.0110           0
      3719 MEMB     32       SLPC     H11X     HAL2     0.900000E-01   1.00800           0
      3720 MEMB     32       SLPC     H11Y     HAL2     0.900000E-01   1.00800           0
      3721 MEMB     32       SLPC     C312     CTL2    -0.180000       12.0110           0
      3722 MEMB     32       SLPC     H12X     HAL2     0.900000E-01   1.00800           0
      3723 MEMB     32       SLPC     H12Y     HAL2     0.900000E-01   1.00800           0
      3724 MEMB     32       SLPC     C313     CTL2    -0.180000       12.0110           0
      3725 MEMB     32       SLPC     H13X     HAL2     0.900000E-01   1.00800           0
      3726 MEMB     32       SLPC     H13Y     HAL2     0.900000E-01   1.00800           0
      3727 MEMB     32       SLPC     C314     CTL2    -0.180000       12.0110           0
      3728 MEMB     32       SLPC     H14X     HAL2     0.900000E-01   1.00800           0
      3729 MEMB     32       SLPC     H14Y     HAL2     0.900000E-01   1.00800           0
      3730 MEMB     32       SLPC     C315     CTL2    -0.180000       12.0110           0
      3731 MEMB     32       SLPC     H15X     HAL2     0.900000E-01   1.00800           0
      3732 MEMB     32       SLPC     H15Y     HAL2     0.900000E-01   1.00800           0
      3733 MEMB     32       SLPC     C316     CTL2    -0.180000       12.0110           0
      3734 MEMB     32       SLPC     H16X     HAL2     0.900000E-01   1.00800           0
      3735 MEMB     32       SLPC     H16Y     HAL2     0.900000E-01   1.00800           0
      3736 MEMB     32       SLPC     C317     CTL2    -0.180000       12.0110           0
      3737 MEMB     32       SLPC     H17X     HAL2     0.900000E-01   1.00800           0
      3738 MEMB     32       SLPC     H17Y     HAL2     0.900000E-01   1.00800           0
      3739 MEMB     32       SLPC     C318     CTL3    -0.270000       12.0110           0
      3740 MEMB     32       SLPC     H18X     HAL3     0.900000E-01   1.00800           0
      3741 MEMB     32       SLPC     H18Y     HAL3     0.900000E-01   1.00800           0
      3742 MEMB     32       SLPC     H18Z     HAL3     0.900000E-01   1.00800           0
      3743 MEMB     33       SOPE     N        NH3L    -0.300000       14.0070           0
      3744 MEMB     33       SOPE     HN1      HCL      0.330000       1.00800           0
      3745 MEMB     33       SOPE     HN2      HCL      0.330000       1.00800           0
      3746 MEMB     33       SOPE     HN3      HCL      0.330000       1.00800           0
      3747 MEMB     33       SOPE     C12      CTL2     0.130000       12.0110           0
      3748 MEMB     33       SOPE     H12A     HAL2     0.900000E-01   1.00800           0
      3749 MEMB     33       SOPE     H12B     HAL2     0.900000E-01   1.00800           0
      3750 MEMB     33       SOPE     C11      CTL2    -0.800000E-01   12.0110           0
      3751 MEMB     33       SOPE     H11A     HAL2     0.900000E-01   1.00800           0
      3752 MEMB     33       SOPE     H11B     HAL2     0.900000E-01   1.00800           0
      3753 MEMB     33       SOPE     P        PL        1.50000       30.9740           0
      3754 MEMB     33       SOPE     O13      O2L     -0.780000       15.9994           0
      3755 MEMB     33       SOPE     O14      O2L     -0.780000       15.9994           0
      3756 MEMB     33       SOPE     O12      OSLP    -0.570000       15.9994           0
      3757 MEMB     33       SOPE     O11      OSLP    -0.570000       15.9994           0
      3758 MEMB     33       SOPE     C1       CTL2    -0.800000E-01   12.0110           0
      3759 MEMB     33       SOPE     HA       HAL2     0.900000E-01   1.00800           0
      3760 MEMB     33       SOPE     HB       HAL2     0.900000E-01   1.00800           0
      3761 MEMB     33       SOPE     C2       CTL1     0.170000       12.0110           0
      3762 MEMB     33       SOPE     HS       HAL1     0.900000E-01   1.00800           0
      3763 MEMB     33       SOPE     O21      OSL     -0.490000       15.9994           0
      3764 MEMB     33       SOPE     C21      CL       0.900000       12.0110           0
      3765 MEMB     33       SOPE     O22      OBL     -0.630000       15.9994           0
      3766 MEMB     33       SOPE     C22      CTL2    -0.220000       12.0110           0
      3767 MEMB     33       SOPE     H2R      HAL2     0.900000E-01   1.00800           0
      3768 MEMB     33       SOPE     H2S      HAL2     0.900000E-01   1.00800           0
      3769 MEMB     33       SOPE     C3       CTL2     0.800000E-01   12.0110           0
      3770 MEMB     33       SOPE     HX       HAL2     0.900000E-01   1.00800           0
      3771 MEMB     33       SOPE     HY       HAL2     0.900000E-01   1.00800           0
      3772 MEMB     33       SOPE     O31      OSL     -0.490000       15.9994           0
      3773 MEMB     33       SOPE     C31      CL       0.900000       12.0110           0
      3774 MEMB     33       SOPE     O32      OBL     -0.630000       15.9994           0
      3775 MEMB     33       SOPE     C32      CTL2    -0.220000       12.0110           0
      3776 MEMB     33       SOPE     H2X      HAL2     0.900000E-01   1.00800           0
      3777 MEMB     33       SOPE     H2Y      HAL2     0.900000E-01   1.00800           0
      3778 MEMB     33       SOPE     C23      CTL2    -0.180000       12.0110           0
      3779 MEMB     33       SOPE     H3R      HAL2     0.900000E-01   1.00800           0
      3780 MEMB     33       SOPE     H3S      HAL2     0.900000E-01   1.00800           0
      3781 MEMB     33       SOPE     C24      CTL2    -0.180000       12.0110           0
      3782 MEMB     33       SOPE     H4R      HAL2     0.900000E-01   1.00800           0
      3783 MEMB     33       SOPE     H4S      HAL2     0.900000E-01   1.00800           0
      3784 MEMB     33       SOPE     C25      CTL2    -0.180000       12.0110           0
      3785 MEMB     33       SOPE     H5R      HAL2     0.900000E-01   1.00800           0
      3786 MEMB     33       SOPE     H5S      HAL2     0.900000E-01   1.00800           0
      3787 MEMB     33       SOPE     C26      CTL2    -0.180000       12.0110           0
      3788 MEMB     33       SOPE     H6R      HAL2     0.900000E-01   1.00800           0
      3789 MEMB     33       SOPE     H6S      HAL2     0.900000E-01   1.00800           0
      3790 MEMB     33       SOPE     C27      CTL2    -0.180000       12.0110           0
      3791 MEMB     33       SOPE     H7R      HAL2     0.900000E-01   1.00800           0
      3792 MEMB     33       SOPE     H7S      HAL2     0.900000E-01   1.00800           0
      3793 MEMB     33       SOPE     C28      CTL2    -0.180000       12.0110           0
      3794 MEMB     33       SOPE     H8R      HAL2     0.900000E-01   1.00800           0
      3795 MEMB     33       SOPE     H8S      HAL2     0.900000E-01   1.00800           0
      3796 MEMB     33       SOPE     C29      CEL1    -0.150000       12.0110           0
      3797 MEMB     33       SOPE     H91      HEL1     0.150000       1.00800           0
      3798 MEMB     33       SOPE     C210     CEL1    -0.150000       12.0110           0
      3799 MEMB     33       SOPE     H101     HEL1     0.150000       1.00800           0
      3800 MEMB     33       SOPE     C211     CTL2    -0.180000       12.0110           0
      3801 MEMB     33       SOPE     H11R     HAL2     0.900000E-01   1.00800           0
      3802 MEMB     33       SOPE     H11S     HAL2     0.900000E-01   1.00800           0
      3803 MEMB     33       SOPE     C212     CTL2    -0.180000       12.0110           0
      3804 MEMB     33       SOPE     H12R     HAL2     0.900000E-01   1.00800           0
      3805 MEMB     33       SOPE     H12S     HAL2     0.900000E-01   1.00800           0
      3806 MEMB     33       SOPE     C213     CTL2    -0.180000       12.0110           0
      3807 MEMB     33       SOPE     H13R     HAL2     0.900000E-01   1.00800           0
      3808 MEMB     33       SOPE     H13S     HAL2     0.900000E-01   1.00800           0
      3809 MEMB     33       SOPE     C214     CTL2    -0.180000       12.0110           0
      3810 MEMB     33       SOPE     H14R     HAL2     0.900000E-01   1.00800           0
      3811 MEMB     33       SOPE     H14S     HAL2     0.900000E-01   1.00800           0
      3812 MEMB     33       SOPE     C215     CTL2    -0.180000       12.0110           0
      3813 MEMB     33       SOPE     H15R     HAL2     0.900000E-01   1.00800           0
      3814 MEMB     33       SOPE     H15S     HAL2     0.900000E-01   1.00800           0
      3815 MEMB     33       SOPE     C216     CTL2    -0.180000       12.0110           0
      3816 MEMB     33       SOPE     H16R     HAL2     0.900000E-01   1.00800           0
      3817 MEMB     33       SOPE     H16S     HAL2     0.900000E-01   1.00800           0
      3818 MEMB     33       SOPE     C217     CTL2    -0.180000       12.0110           0
      3819 MEMB     33       SOPE     H17R     HAL2     0.900000E-01   1.00800           0
      3820 MEMB     33       SOPE     H17S     HAL2     0.900000E-01   1.00800           0
      3821 MEMB     33       SOPE     C218     CTL3    -0.270000       12.0110           0
      3822 MEMB     33       SOPE     H18R     HAL3     0.900000E-01   1.00800           0
      3823 MEMB     33       SOPE     H18S     HAL3     0.900000E-01   1.00800           0
      3824 MEMB     33       SOPE     H18T     HAL3     0.900000E-01   1.00800           0
      3825 MEMB     33       SOPE     C33      CTL2    -0.180000       12.0110           0
      3826 MEMB     33       SOPE     H3X      HAL2     0.900000E-01   1.00800           0
      3827 MEMB     33       SOPE     H3Y      HAL2     0.900000E-01   1.00800           0
      3828 MEMB     33       SOPE     C34      CTL2    -0.180000       12.0110           0
      3829 MEMB     33       SOPE     H4X      HAL2     0.900000E-01   1.00800           0
      3830 MEMB     33       SOPE     H4Y      HAL2     0.900000E-01   1.00800           0
      3831 MEMB     33       SOPE     C35      CTL2    -0.180000       12.0110           0
      3832 MEMB     33       SOPE     H5X      HAL2     0.900000E-01   1.00800           0
      3833 MEMB     33       SOPE     H5Y      HAL2     0.900000E-01   1.00800           0
      3834 MEMB     33       SOPE     C36      CTL2    -0.180000       12.0110           0
      3835 MEMB     33       SOPE     H6X      HAL2     0.900000E-01   1.00800           0
      3836 MEMB     33       SOPE     H6Y      HAL2     0.900000E-01   1.00800           0
      3837 MEMB     33       SOPE     C37      CTL2    -0.180000       12.0110           0
      3838 MEMB     33       SOPE     H7X      HAL2     0.900000E-01   1.00800           0
      3839 MEMB     33       SOPE     H7Y      HAL2     0.900000E-01   1.00800           0
      3840 MEMB     33       SOPE     C38      CTL2    -0.180000       12.0110           0
      3841 MEMB     33       SOPE     H8X      HAL2     0.900000E-01   1.00800           0
      3842 MEMB     33       SOPE     H8Y      HAL2     0.900000E-01   1.00800           0
      3843 MEMB     33       SOPE     C39      CTL2    -0.180000       12.0110           0
      3844 MEMB     33       SOPE     H9X      HAL2     0.900000E-01   1.00800           0
      3845 MEMB     33       SOPE     H9Y      HAL2     0.900000E-01   1.00800           0
      3846 MEMB     33       SOPE     C310     CTL2    -0.180000       12.0110           0
      3847 MEMB     33       SOPE     H10X     HAL2     0.900000E-01   1.00800           0
      3848 MEMB     33       SOPE     H10Y     HAL2     0.900000E-01   1.00800           0
      3849 MEMB     33       SOPE     C311     CTL2    -0.180000       12.0110           0
      3850 MEMB     33       SOPE     H11X     HAL2     0.900000E-01   1.00800           0
      3851 MEMB     33       SOPE     H11Y     HAL2     0.900000E-01   1.00800           0
      3852 MEMB     33       SOPE     C312     CTL2    -0.180000       12.0110           0
      3853 MEMB     33       SOPE     H12X     HAL2     0.900000E-01   1.00800           0
      3854 MEMB     33       SOPE     H12Y     HAL2     0.900000E-01   1.00800           0
      3855 MEMB     33       SOPE     C313     CTL2    -0.180000       12.0110           0
      3856 MEMB     33       SOPE     H13X     HAL2     0.900000E-01   1.00800           0
      3857 MEMB     33       SOPE     H13Y     HAL2     0.900000E-01   1.00800           0
      3858 MEMB     33       SOPE     C314     CTL2    -0.180000       12.0110           0
      3859 MEMB     33       SOPE     H14X     HAL2     0.900000E-01   1.00800           0
      3860 MEMB     33       SOPE     H14Y     HAL2     0.900000E-01   1.00800           0
      3861 MEMB     33       SOPE     C315     CTL2    -0.180000       12.0110           0
      3862 MEMB     33       SOPE     H15X     HAL2     0.900000E-01   1.00800           0
      3863 MEMB     33       SOPE     H15Y     HAL2     0.900000E-01   1.00800           0
      3864 MEMB     33       SOPE     C316     CTL2    -0.180000       12.0110           0
      3865 MEMB     33       SOPE     H16X     HAL2     0.900000E-01   1.00800           0
      3866 MEMB     33       SOPE     H16Y     HAL2     0.900000E-01   1.00800           0
      3867 MEMB     33       SOPE     C317     CTL2    -0.180000       12.0110           0
      3868 MEMB     33       SOPE     H17X     HAL2     0.900000E-01   1.00800           0
      3869 MEMB     33       SOPE     H17Y     HAL2     0.900000E-01   1.00800           0
      3870 MEMB     33       SOPE     C318     CTL3    -0.270000       12.0110           0
      3871 MEMB     33       SOPE     H18X     HAL3     0.900000E-01   1.00800           0
      3872 MEMB     33       SOPE     H18Y     HAL3     0.900000E-01   1.00800           0
      3873 MEMB     33       SOPE     H18Z     HAL3     0.900000E-01   1.00800           0
      3874 MEMB     34       SAPI     C12      CC3161   0.140000       12.0110           0
      3875 MEMB     34       SAPI     H2       HCA1     0.900000E-01   1.00800           0
      3876 MEMB     34       SAPI     O2       OC311   -0.650000       15.9994           0
      3877 MEMB     34       SAPI     HO2      HCP1     0.420000       1.00800           0
      3878 MEMB     34       SAPI     C13      CC3161   0.140000       12.0110           0
      3879 MEMB     34       SAPI     H3       HCA1     0.900000E-01   1.00800           0
      3880 MEMB     34       SAPI     O3       OC311   -0.650000       15.9994           0
      3881 MEMB     34       SAPI     HO3      HCP1     0.420000       1.00800           0
      3882 MEMB     34       SAPI     C14      CC3161   0.140000       12.0110           0
      3883 MEMB     34       SAPI     H4       HCA1     0.900000E-01   1.00800           0
      3884 MEMB     34       SAPI     O4       OC311   -0.650000       15.9994           0
      3885 MEMB     34       SAPI     HO4      HCP1     0.420000       1.00800           0
      3886 MEMB     34       SAPI     C15      CC3161   0.140000       12.0110           0
      3887 MEMB     34       SAPI     H5       HCA1     0.900000E-01   1.00800           0
      3888 MEMB     34       SAPI     O5       OC311   -0.650000       15.9994           0
      3889 MEMB     34       SAPI     HO5      HCP1     0.420000       1.00800           0
      3890 MEMB     34       SAPI     C16      CC3161   0.140000       12.0110           0
      3891 MEMB     34       SAPI     H6       HCA1     0.900000E-01   1.00800           0
      3892 MEMB     34       SAPI     O6       OC311   -0.650000       15.9994           0
      3893 MEMB     34       SAPI     HO6      HCP1     0.420000       1.00800           0
      3894 MEMB     34       SAPI     C11      CC3161  -0.800000E-01   12.0110           0
      3895 MEMB     34       SAPI     H1       HCA1     0.900000E-01   1.00800           0
      3896 MEMB     34       SAPI     P        PL        1.59000       30.9740           0
      3897 MEMB     34       SAPI     O13      O2L     -0.780000       15.9994           0
      3898 MEMB     34       SAPI     O14      O2L     -0.780000       15.9994           0
      3899 MEMB     34       SAPI     O12      OC30P   -0.570000       15.9994           0
      3900 MEMB     34       SAPI     O11      OSLP    -0.570000       15.9994           0
      3901 MEMB     34       SAPI     C1       CTL2    -0.800000E-01   12.0110           0
      3902 MEMB     34       SAPI     HA       HAL2     0.900000E-01   1.00800           0
      3903 MEMB     34       SAPI     HB       HAL2     0.900000E-01   1.00800           0
      3904 MEMB     34       SAPI     C2       CTL1     0.170000       12.0110           0
      3905 MEMB     34       SAPI     HS       HAL1     0.900000E-01   1.00800           0
      3906 MEMB     34       SAPI     O21      OSL     -0.490000       15.9994           0
      3907 MEMB     34       SAPI     C21      CL       0.900000       12.0110           0
      3908 MEMB     34       SAPI     O22      OBL     -0.630000       15.9994           0
      3909 MEMB     34       SAPI     C22      CTL2    -0.220000       12.0110           0
      3910 MEMB     34       SAPI     H2R      HAL2     0.900000E-01   1.00800           0
      3911 MEMB     34       SAPI     H2S      HAL2     0.900000E-01   1.00800           0
      3912 MEMB     34       SAPI     C3       CTL2     0.800000E-01   12.0110           0
      3913 MEMB     34       SAPI     HX       HAL2     0.900000E-01   1.00800           0
      3914 MEMB     34       SAPI     HY       HAL2     0.900000E-01   1.00800           0
      3915 MEMB     34       SAPI     O31      OSL     -0.490000       15.9994           0
      3916 MEMB     34       SAPI     C31      CL       0.900000       12.0110           0
      3917 MEMB     34       SAPI     O32      OBL     -0.630000       15.9994           0
      3918 MEMB     34       SAPI     C32      CTL2    -0.220000       12.0110           0
      3919 MEMB     34       SAPI     H2X      HAL2     0.900000E-01   1.00800           0
      3920 MEMB     34       SAPI     H2Y      HAL2     0.900000E-01   1.00800           0
      3921 MEMB     34       SAPI     C23      CTL2    -0.180000       12.0110           0
      3922 MEMB     34       SAPI     H3R      HAL2     0.900000E-01   1.00800           0
      3923 MEMB     34       SAPI     H3S      HAL2     0.900000E-01   1.00800           0
      3924 MEMB     34       SAPI     C24      CTL2    -0.180000       12.0110           0
      3925 MEMB     34       SAPI     H4R      HAL2     0.900000E-01   1.00800           0
      3926 MEMB     34       SAPI     H4S      HAL2     0.900000E-01   1.00800           0
      3927 MEMB     34       SAPI     C25      CEL1    -0.150000       12.0110           0
      3928 MEMB     34       SAPI     H5R      HEL1     0.150000       1.00800           0
      3929 MEMB     34       SAPI     C26      CEL1    -0.150000       12.0110           0
      3930 MEMB     34       SAPI     H6R      HEL1     0.150000       1.00800           0
      3931 MEMB     34       SAPI     C27      CTL2    -0.180000       12.0110           0
      3932 MEMB     34       SAPI     H7R      HAL2     0.900000E-01   1.00800           0
      3933 MEMB     34       SAPI     H7S      HAL2     0.900000E-01   1.00800           0
      3934 MEMB     34       SAPI     C28      CEL1    -0.150000       12.0110           0
      3935 MEMB     34       SAPI     H8R      HEL1     0.150000       1.00800           0
      3936 MEMB     34       SAPI     C29      CEL1    -0.150000       12.0110           0
      3937 MEMB     34       SAPI     H9R      HEL1     0.150000       1.00800           0
      3938 MEMB     34       SAPI     C210     CTL2    -0.180000       12.0110           0
      3939 MEMB     34       SAPI     H10R     HAL2     0.900000E-01   1.00800           0
      3940 MEMB     34       SAPI     H10S     HAL2     0.900000E-01   1.00800           0
      3941 MEMB     34       SAPI     C211     CEL1    -0.150000       12.0110           0
      3942 MEMB     34       SAPI     H11R     HEL1     0.150000       1.00800           0
      3943 MEMB     34       SAPI     C212     CEL1    -0.150000       12.0110           0
      3944 MEMB     34       SAPI     H12R     HEL1     0.150000       1.00800           0
      3945 MEMB     34       SAPI     C213     CTL2    -0.180000       12.0110           0
      3946 MEMB     34       SAPI     H13R     HAL2     0.900000E-01   1.00800           0
      3947 MEMB     34       SAPI     H13S     HAL2     0.900000E-01   1.00800           0
      3948 MEMB     34       SAPI     C214     CEL1    -0.150000       12.0110           0
      3949 MEMB     34       SAPI     H14R     HEL1     0.150000       1.00800           0
      3950 MEMB     34       SAPI     C215     CEL1    -0.150000       12.0110           0
      3951 MEMB     34       SAPI     H15R     HEL1     0.150000       1.00800           0
      3952 MEMB     34       SAPI     C216     CTL2    -0.180000       12.0110           0
      3953 MEMB     34       SAPI     H16R     HAL2     0.900000E-01   1.00800           0
      3954 MEMB     34       SAPI     H16S     HAL2     0.900000E-01   1.00800           0
      3955 MEMB     34       SAPI     C217     CTL2    -0.180000       12.0110           0
      3956 MEMB     34       SAPI     H17R     HAL2     0.900000E-01   1.00800           0
      3957 MEMB     34       SAPI     H17S     HAL2     0.900000E-01   1.00800           0
      3958 MEMB     34       SAPI     C218     CTL2    -0.180000       12.0110           0
      3959 MEMB     34       SAPI     H18R     HAL2     0.900000E-01   1.00800           0
      3960 MEMB     34       SAPI     H18S     HAL2     0.900000E-01   1.00800           0
      3961 MEMB     34       SAPI     C219     CTL2    -0.180000       12.0110           0
      3962 MEMB     34       SAPI     H19R     HAL2     0.900000E-01   1.00800           0
      3963 MEMB     34       SAPI     H19S     HAL2     0.900000E-01   1.00800           0
      3964 MEMB     34       SAPI     C220     CTL3    -0.270000       12.0110           0
      3965 MEMB     34       SAPI     H20R     HAL3     0.900000E-01   1.00800           0
      3966 MEMB     34       SAPI     H20S     HAL3     0.900000E-01   1.00800           0
      3967 MEMB     34       SAPI     H20T     HAL3     0.900000E-01   1.00800           0
      3968 MEMB     34       SAPI     C33      CTL2    -0.180000       12.0110           0
      3969 MEMB     34       SAPI     H3X      HAL2     0.900000E-01   1.00800           0
      3970 MEMB     34       SAPI     H3Y      HAL2     0.900000E-01   1.00800           0
      3971 MEMB     34       SAPI     C34      CTL2    -0.180000       12.0110           0
      3972 MEMB     34       SAPI     H4X      HAL2     0.900000E-01   1.00800           0
      3973 MEMB     34       SAPI     H4Y      HAL2     0.900000E-01   1.00800           0
      3974 MEMB     34       SAPI     C35      CTL2    -0.180000       12.0110           0
      3975 MEMB     34       SAPI     H5X      HAL2     0.900000E-01   1.00800           0
      3976 MEMB     34       SAPI     H5Y      HAL2     0.900000E-01   1.00800           0
      3977 MEMB     34       SAPI     C36      CTL2    -0.180000       12.0110           0
      3978 MEMB     34       SAPI     H6X      HAL2     0.900000E-01   1.00800           0
      3979 MEMB     34       SAPI     H6Y      HAL2     0.900000E-01   1.00800           0
      3980 MEMB     34       SAPI     C37      CTL2    -0.180000       12.0110           0
      3981 MEMB     34       SAPI     H7X      HAL2     0.900000E-01   1.00800           0
      3982 MEMB     34       SAPI     H7Y      HAL2     0.900000E-01   1.00800           0
      3983 MEMB     34       SAPI     C38      CTL2    -0.180000       12.0110           0
      3984 MEMB     34       SAPI     H8X      HAL2     0.900000E-01   1.00800           0
      3985 MEMB     34       SAPI     H8Y      HAL2     0.900000E-01   1.00800           0
      3986 MEMB     34       SAPI     C39      CTL2    -0.180000       12.0110           0
      3987 MEMB     34       SAPI     H9X      HAL2     0.900000E-01   1.00800           0
      3988 MEMB     34       SAPI     H9Y      HAL2     0.900000E-01   1.00800           0
      3989 MEMB     34       SAPI     C310     CTL2    -0.180000       12.0110           0
      3990 MEMB     34       SAPI     H10X     HAL2     0.900000E-01   1.00800           0
      3991 MEMB     34       SAPI     H10Y     HAL2     0.900000E-01   1.00800           0
      3992 MEMB     34       SAPI     C311     CTL2    -0.180000       12.0110           0
      3993 MEMB     34       SAPI     H11X     HAL2     0.900000E-01   1.00800           0
      3994 MEMB     34       SAPI     H11Y     HAL2     0.900000E-01   1.00800           0
      3995 MEMB     34       SAPI     C312     CTL2    -0.180000       12.0110           0
      3996 MEMB     34       SAPI     H12X     HAL2     0.900000E-01   1.00800           0
      3997 MEMB     34       SAPI     H12Y     HAL2     0.900000E-01   1.00800           0
      3998 MEMB     34       SAPI     C313     CTL2    -0.180000       12.0110           0
      3999 MEMB     34       SAPI     H13X     HAL2     0.900000E-01   1.00800           0
      4000 MEMB     34       SAPI     H13Y     HAL2     0.900000E-01   1.00800           0
      4001 MEMB     34       SAPI     C314     CTL2    -0.180000       12.0110           0
      4002 MEMB     34       SAPI     H14X     HAL2     0.900000E-01   1.00800           0
      4003 MEMB     34       SAPI     H14Y     HAL2     0.900000E-01   1.00800           0
      4004 MEMB     34       SAPI     C315     CTL2    -0.180000       12.0110           0
      4005 MEMB     34       SAPI     H15X     HAL2     0.900000E-01   1.00800           0
      4006 MEMB     34       SAPI     H15Y     HAL2     0.900000E-01   1.00800           0
      4007 MEMB     34       SAPI     C316     CTL2    -0.180000       12.0110           0
      4008 MEMB     34       SAPI     H16X     HAL2     0.900000E-01   1.00800           0
      4009 MEMB     34       SAPI     H16Y     HAL2     0.900000E-01   1.00800           0
      4010 MEMB     34       SAPI     C317     CTL2    -0.180000       12.0110           0
      4011 MEMB     34       SAPI     H17X     HAL2     0.900000E-01   1.00800           0
      4012 MEMB     34       SAPI     H17Y     HAL2     0.900000E-01   1.00800           0
      4013 MEMB     34       SAPI     C318     CTL3    -0.270000       12.0110           0
      4014 MEMB     34       SAPI     H18X     HAL3     0.900000E-01   1.00800           0
      4015 MEMB     34       SAPI     H18Y     HAL3     0.900000E-01   1.00800           0
      4016 MEMB     34       SAPI     H18Z     HAL3     0.900000E-01   1.00800           0
      4017 MEMB     35       CHL1     C3       CRL1     0.140000       12.0110           0
      4018 MEMB     35       CHL1     H3       HGA1     0.900000E-01   1.00800           0
      4019 MEMB     35       CHL1     O3       OHL     -0.660000       15.9994           0
      4020 MEMB     35       CHL1     H3'      HOL      0.430000       1.00800           0
      4021 MEMB     35       CHL1     C4       CRL2    -0.180000       12.0110           0
      4022 MEMB     35       CHL1     H4A      HGA2     0.900000E-01   1.00800           0
      4023 MEMB     35       CHL1     H4B      HGA2     0.900000E-01   1.00800           0
      4024 MEMB     35       CHL1     C5       CEL1      0.00000       12.0110           0
      4025 MEMB     35       CHL1     C6       CEL1    -0.150000       12.0110           0
      4026 MEMB     35       CHL1     H6       HEL1     0.150000       1.00800           0
      4027 MEMB     35       CHL1     C7       CRL2    -0.180000       12.0110           0
      4028 MEMB     35       CHL1     H7A      HGA2     0.900000E-01   1.00800           0
      4029 MEMB     35       CHL1     H7B      HGA2     0.900000E-01   1.00800           0
      4030 MEMB     35       CHL1     C8       CRL1    -0.900000E-01   12.0110           0
      4031 MEMB     35       CHL1     H8       HGA1     0.900000E-01   1.00800           0
      4032 MEMB     35       CHL1     C14      CRL1    -0.900000E-01   12.0110           0
      4033 MEMB     35       CHL1     H14      HGA1     0.900000E-01   1.00800           0
      4034 MEMB     35       CHL1     C15      CRL2    -0.180000       12.0110           0
      4035 MEMB     35       CHL1     H15A     HGA2     0.900000E-01   1.00800           0
      4036 MEMB     35       CHL1     H15B     HGA2     0.900000E-01   1.00800           0
      4037 MEMB     35       CHL1     C16      CRL2    -0.180000       12.0110           0
      4038 MEMB     35       CHL1     H16A     HGA2     0.900000E-01   1.00800           0
      4039 MEMB     35       CHL1     H16B     HGA2     0.900000E-01   1.00800           0
      4040 MEMB     35       CHL1     C17      CRL1    -0.900000E-01   12.0110           0
      4041 MEMB     35       CHL1     H17      HGA1     0.900000E-01   1.00800           0
      4042 MEMB     35       CHL1     C13      CRL1      0.00000       12.0110           0
      4043 MEMB     35       CHL1     C18      CTL3    -0.270000       12.0110           0
      4044 MEMB     35       CHL1     H18A     HAL3     0.900000E-01   1.00800           0
      4045 MEMB     35       CHL1     H18B     HAL3     0.900000E-01   1.00800           0
      4046 MEMB     35       CHL1     H18C     HAL3     0.900000E-01   1.00800           0
      4047 MEMB     35       CHL1     C12      CRL2    -0.180000       12.0110           0
      4048 MEMB     35       CHL1     H12A     HGA2     0.900000E-01   1.00800           0
      4049 MEMB     35       CHL1     H12B     HGA2     0.900000E-01   1.00800           0
      4050 MEMB     35       CHL1     C11      CRL2    -0.180000       12.0110           0
      4051 MEMB     35       CHL1     H11A     HGA2     0.900000E-01   1.00800           0
      4052 MEMB     35       CHL1     H11B     HGA2     0.900000E-01   1.00800           0
      4053 MEMB     35       CHL1     C9       CRL1    -0.900000E-01   12.0110           0
      4054 MEMB     35       CHL1     H9       HGA1     0.900000E-01   1.00800           0
      4055 MEMB     35       CHL1     C10      CRL1      0.00000       12.0110           0
      4056 MEMB     35       CHL1     C19      CTL3    -0.270000       12.0110           0
      4057 MEMB     35       CHL1     H19A     HAL3     0.900000E-01   1.00800           0
      4058 MEMB     35       CHL1     H19B     HAL3     0.900000E-01   1.00800           0
      4059 MEMB     35       CHL1     H19C     HAL3     0.900000E-01   1.00800           0
      4060 MEMB     35       CHL1     C1       CRL2    -0.180000       12.0110           0
      4061 MEMB     35       CHL1     H1A      HGA2     0.900000E-01   1.00800           0
      4062 MEMB     35       CHL1     H1B      HGA2     0.900000E-01   1.00800           0
      4063 MEMB     35       CHL1     C2       CRL2    -0.180000       12.0110           0
      4064 MEMB     35       CHL1     H2A      HGA2     0.900000E-01   1.00800           0
      4065 MEMB     35       CHL1     H2B      HGA2     0.900000E-01   1.00800           0
      4066 MEMB     35       CHL1     C20      CTL1    -0.900000E-01   12.0110           0
      4067 MEMB     35       CHL1     H20      HAL1     0.900000E-01   1.00800           0
      4068 MEMB     35       CHL1     C21      CTL3    -0.270000       12.0110           0
      4069 MEMB     35       CHL1     H21A     HAL3     0.900000E-01   1.00800           0
      4070 MEMB     35       CHL1     H21B     HAL3     0.900000E-01   1.00800           0
      4071 MEMB     35       CHL1     H21C     HAL3     0.900000E-01   1.00800           0
      4072 MEMB     35       CHL1     C22      CTL2    -0.180000       12.0110           0
      4073 MEMB     35       CHL1     H22A     HAL2     0.900000E-01   1.00800           0
      4074 MEMB     35       CHL1     H22B     HAL2     0.900000E-01   1.00800           0
      4075 MEMB     35       CHL1     C23      CTL2    -0.180000       12.0110           0
      4076 MEMB     35       CHL1     H23A     HAL2     0.900000E-01   1.00800           0
      4077 MEMB     35       CHL1     H23B     HAL2     0.900000E-01   1.00800           0
      4078 MEMB     35       CHL1     C24      CTL2    -0.180000       12.0110           0
      4079 MEMB     35       CHL1     H24A     HAL2     0.900000E-01   1.00800           0
      4080 MEMB     35       CHL1     H24B     HAL2     0.900000E-01   1.00800           0
      4081 MEMB     35       CHL1     C25      CTL1    -0.900000E-01   12.0110           0
      4082 MEMB     35       CHL1     H25      HAL1     0.900000E-01   1.00800           0
      4083 MEMB     35       CHL1     C26      CTL3    -0.270000       12.0110           0
      4084 MEMB     35       CHL1     H26A     HAL3     0.900000E-01   1.00800           0
      4085 MEMB     35       CHL1     H26B     HAL3     0.900000E-01   1.00800           0
      4086 MEMB     35       CHL1     H26C     HAL3     0.900000E-01   1.00800           0
      4087 MEMB     35       CHL1     C27      CTL3    -0.270000       12.0110           0
      4088 MEMB     35       CHL1     H27A     HAL3     0.900000E-01   1.00800           0
      4089 MEMB     35       CHL1     H27B     HAL3     0.900000E-01   1.00800           0
      4090 MEMB     35       CHL1     H27C     HAL3     0.900000E-01   1.00800           0
      4091 MEMB     36       OSM      N        NTL     -0.600000       14.0070           0
      4092 MEMB     36       OSM      C15      CTL5    -0.350000       12.0110           0
      4093 MEMB     36       OSM      H15A     HL       0.250000       1.00800           0
      4094 MEMB     36       OSM      H15B     HL       0.250000       1.00800           0
      4095 MEMB     36       OSM      H15C     HL       0.250000       1.00800           0
      4096 MEMB     36       OSM      C14      CTL5    -0.350000       12.0110           0
      4097 MEMB     36       OSM      H14A     HL       0.250000       1.00800           0
      4098 MEMB     36       OSM      H14B     HL       0.250000       1.00800           0
      4099 MEMB     36       OSM      H14C     HL       0.250000       1.00800           0
      4100 MEMB     36       OSM      C13      CTL5    -0.350000       12.0110           0
      4101 MEMB     36       OSM      H13A     HL       0.250000       1.00800           0
      4102 MEMB     36       OSM      H13B     HL       0.250000       1.00800           0
      4103 MEMB     36       OSM      H13C     HL       0.250000       1.00800           0
      4104 MEMB     36       OSM      C12      CTL2    -0.100000       12.0110           0
      4105 MEMB     36       OSM      H12A     HL       0.250000       1.00800           0
      4106 MEMB     36       OSM      H12B     HL       0.250000       1.00800           0
      4107 MEMB     36       OSM      C11      CTL2    -0.800000E-01   12.0110           0
      4108 MEMB     36       OSM      H11A     HAL2     0.900000E-01   1.00800           0
      4109 MEMB     36       OSM      H11B     HAL2     0.900000E-01   1.00800           0
      4110 MEMB     36       OSM      P        PL        1.50000       30.9740           0
      4111 MEMB     36       OSM      O13      O2L     -0.780000       15.9994           0
      4112 MEMB     36       OSM      O14      O2L     -0.780000       15.9994           0
      4113 MEMB     36       OSM      O11      OSLP    -0.570000       15.9994           0
      4114 MEMB     36       OSM      O12      OSLP    -0.570000       15.9994           0
      4115 MEMB     36       OSM      C1S      CTL2    -0.800000E-01   12.0110           0
      4116 MEMB     36       OSM      H1S      HAL2     0.900000E-01   1.00800           0
      4117 MEMB     36       OSM      H1T      HAL2     0.900000E-01   1.00800           0
      4118 MEMB     36       OSM      NF       NHL     -0.700000       14.0070           0
      4119 MEMB     36       OSM      HNF      H        0.350000       1.00800           0
      4120 MEMB     36       OSM      C2S      CTL1     0.300000       12.0110           0
      4121 MEMB     36       OSM      H2S      HAL1     0.500000E-01   1.00800           0
      4122 MEMB     36       OSM      C3S      CTO1     0.500000       12.0110           0
      4123 MEMB     36       OSM      H3S      HAL1    -0.110000       1.00800           0
      4124 MEMB     36       OSM      O3       OHL     -0.690000       15.9994           0
      4125 MEMB     36       OSM      HO3      HOL      0.300000       1.00800           0
      4126 MEMB     36       OSM      C4S      CEL3    -0.150000       12.0110           0
      4127 MEMB     36       OSM      H4S      HEL1     0.150000       1.00800           0
      4128 MEMB     36       OSM      C5S      CEL3    -0.150000       12.0110           0
      4129 MEMB     36       OSM      H5S      HEL1     0.150000       1.00800           0
      4130 MEMB     36       OSM      C6S      CTL2    -0.180000       12.0110           0
      4131 MEMB     36       OSM      H6S      HAL2     0.900000E-01   1.00800           0
      4132 MEMB     36       OSM      H6T      HAL2     0.900000E-01   1.00800           0
      4133 MEMB     36       OSM      C7S      CTL2    -0.180000       12.0110           0
      4134 MEMB     36       OSM      H7S      HAL2     0.900000E-01   1.00800           0
      4135 MEMB     36       OSM      H7T      HAL2     0.900000E-01   1.00800           0
      4136 MEMB     36       OSM      C8S      CTL2    -0.180000       12.0110           0
      4137 MEMB     36       OSM      H8S      HAL2     0.900000E-01   1.00800           0
      4138 MEMB     36       OSM      H8T      HAL2     0.900000E-01   1.00800           0
      4139 MEMB     36       OSM      C9S      CTL2    -0.180000       12.0110           0
      4140 MEMB     36       OSM      H9S      HAL2     0.900000E-01   1.00800           0
      4141 MEMB     36       OSM      H9T      HAL2     0.900000E-01   1.00800           0
      4142 MEMB     36       OSM      C10S     CTL2    -0.180000       12.0110           0
      4143 MEMB     36       OSM      H10S     HAL2     0.900000E-01   1.00800           0
      4144 MEMB     36       OSM      H10T     HAL2     0.900000E-01   1.00800           0
      4145 MEMB     36       OSM      C11S     CTL2    -0.180000       12.0110           0
      4146 MEMB     36       OSM      H11S     HAL2     0.900000E-01   1.00800           0
      4147 MEMB     36       OSM      H11T     HAL2     0.900000E-01   1.00800           0
      4148 MEMB     36       OSM      C12S     CTL2    -0.180000       12.0110           0
      4149 MEMB     36       OSM      H12S     HAL2     0.900000E-01   1.00800           0
      4150 MEMB     36       OSM      H12T     HAL2     0.900000E-01   1.00800           0
      4151 MEMB     36       OSM      C13S     CTL2    -0.180000       12.0110           0
      4152 MEMB     36       OSM      H13S     HAL2     0.900000E-01   1.00800           0
      4153 MEMB     36       OSM      H13T     HAL2     0.900000E-01   1.00800           0
      4154 MEMB     36       OSM      C14S     CTL2    -0.180000       12.0110           0
      4155 MEMB     36       OSM      H14S     HAL2     0.900000E-01   1.00800           0
      4156 MEMB     36       OSM      H14T     HAL2     0.900000E-01   1.00800           0
      4157 MEMB     36       OSM      C15S     CTL2    -0.180000       12.0110           0
      4158 MEMB     36       OSM      H15S     HAL2     0.900000E-01   1.00800           0
      4159 MEMB     36       OSM      H15T     HAL2     0.900000E-01   1.00800           0
      4160 MEMB     36       OSM      C16S     CTL2    -0.180000       12.0110           0
      4161 MEMB     36       OSM      H16S     HAL2     0.900000E-01   1.00800           0
      4162 MEMB     36       OSM      H16T     HAL2     0.900000E-01   1.00800           0
      4163 MEMB     36       OSM      C17S     CTL2    -0.180000       12.0110           0
      4164 MEMB     36       OSM      H17S     HAL2     0.900000E-01   1.00800           0
      4165 MEMB     36       OSM      H17T     HAL2     0.900000E-01   1.00800           0
      4166 MEMB     36       OSM      C18S     CTL3    -0.270000       12.0110           0
      4167 MEMB     36       OSM      H18S     HAL3     0.900000E-01   1.00800           0
      4168 MEMB     36       OSM      H18T     HAL3     0.900000E-01   1.00800           0
      4169 MEMB     36       OSM      H18U     HAL3     0.900000E-01   1.00800           0
      4170 MEMB     36       OSM      C1F      C        0.550000       12.0110           0
      4171 MEMB     36       OSM      OF       O       -0.600000       15.9994           0
      4172 MEMB     36       OSM      C2F      CTL2    -0.700000E-01   12.0110           0
      4173 MEMB     36       OSM      H2F      HAL2     0.600000E-01   1.00800           0
      4174 MEMB     36       OSM      H2G      HAL2     0.600000E-01   1.00800           0
      4175 MEMB     36       OSM      C3F      CTL2    -0.180000       12.0110           0
      4176 MEMB     36       OSM      H3F      HAL2     0.900000E-01   1.00800           0
      4177 MEMB     36       OSM      H3G      HAL2     0.900000E-01   1.00800           0
      4178 MEMB     36       OSM      C4F      CTL2    -0.180000       12.0110           0
      4179 MEMB     36       OSM      H4F      HAL2     0.900000E-01   1.00800           0
      4180 MEMB     36       OSM      H4G      HAL2     0.900000E-01   1.00800           0
      4181 MEMB     36       OSM      C5F      CTL2    -0.180000       12.0110           0
      4182 MEMB     36       OSM      H5F      HAL2     0.900000E-01   1.00800           0
      4183 MEMB     36       OSM      H5G      HAL2     0.900000E-01   1.00800           0
      4184 MEMB     36       OSM      C6F      CTL2    -0.180000       12.0110           0
      4185 MEMB     36       OSM      H6F      HAL2     0.900000E-01   1.00800           0
      4186 MEMB     36       OSM      H6G      HAL2     0.900000E-01   1.00800           0
      4187 MEMB     36       OSM      C7F      CTL2    -0.180000       12.0110           0
      4188 MEMB     36       OSM      H7F      HAL2     0.900000E-01   1.00800           0
      4189 MEMB     36       OSM      H7G      HAL2     0.900000E-01   1.00800           0
      4190 MEMB     36       OSM      C8F      CTL2    -0.180000       12.0110           0
      4191 MEMB     36       OSM      H8F      HAL2     0.900000E-01   1.00800           0
      4192 MEMB     36       OSM      H8G      HAL2     0.900000E-01   1.00800           0
      4193 MEMB     36       OSM      C9F      CEL1    -0.150000       12.0110           0
      4194 MEMB     36       OSM      H9F      HEL1     0.150000       1.00800           0
      4195 MEMB     36       OSM      C10F     CEL1    -0.150000       12.0110           0
      4196 MEMB     36       OSM      H10F     HEL1     0.150000       1.00800           0
      4197 MEMB     36       OSM      C11F     CTL2    -0.180000       12.0110           0
      4198 MEMB     36       OSM      H11F     HAL2     0.900000E-01   1.00800           0
      4199 MEMB     36       OSM      H11G     HAL2     0.900000E-01   1.00800           0
      4200 MEMB     36       OSM      C12F     CTL2    -0.180000       12.0110           0
      4201 MEMB     36       OSM      H12F     HAL2     0.900000E-01   1.00800           0
      4202 MEMB     36       OSM      H12G     HAL2     0.900000E-01   1.00800           0
      4203 MEMB     36       OSM      C13F     CTL2    -0.180000       12.0110           0
      4204 MEMB     36       OSM      H13F     HAL2     0.900000E-01   1.00800           0
      4205 MEMB     36       OSM      H13G     HAL2     0.900000E-01   1.00800           0
      4206 MEMB     36       OSM      C14F     CTL2    -0.180000       12.0110           0
      4207 MEMB     36       OSM      H14F     HAL2     0.900000E-01   1.00800           0
      4208 MEMB     36       OSM      H14G     HAL2     0.900000E-01   1.00800           0
      4209 MEMB     36       OSM      C15F     CTL2    -0.180000       12.0110           0
      4210 MEMB     36       OSM      H15F     HAL2     0.900000E-01   1.00800           0
      4211 MEMB     36       OSM      H15G     HAL2     0.900000E-01   1.00800           0
      4212 MEMB     36       OSM      C16F     CTL2    -0.180000       12.0110           0
      4213 MEMB     36       OSM      H16F     HAL2     0.900000E-01   1.00800           0
      4214 MEMB     36       OSM      H16G     HAL2     0.900000E-01   1.00800           0
      4215 MEMB     36       OSM      C17F     CTL2    -0.180000       12.0110           0
      4216 MEMB     36       OSM      H17F     HAL2     0.900000E-01   1.00800           0
      4217 MEMB     36       OSM      H17G     HAL2     0.900000E-01   1.00800           0
      4218 MEMB     36       OSM      C18F     CTL3    -0.270000       12.0110           0
      4219 MEMB     36       OSM      H18F     HAL3     0.900000E-01   1.00800           0
      4220 MEMB     36       OSM      H18G     HAL3     0.900000E-01   1.00800           0
      4221 MEMB     36       OSM      H18H     HAL3     0.900000E-01   1.00800           0
      4222 MEMB     37       CHL1     C3       CRL1     0.140000       12.0110           0
      4223 MEMB     37       CHL1     H3       HGA1     0.900000E-01   1.00800           0
      4224 MEMB     37       CHL1     O3       OHL     -0.660000       15.9994           0
      4225 MEMB     37       CHL1     H3'      HOL      0.430000       1.00800           0
      4226 MEMB     37       CHL1     C4       CRL2    -0.180000       12.0110           0
      4227 MEMB     37       CHL1     H4A      HGA2     0.900000E-01   1.00800           0
      4228 MEMB     37       CHL1     H4B      HGA2     0.900000E-01   1.00800           0
      4229 MEMB     37       CHL1     C5       CEL1      0.00000       12.0110           0
      4230 MEMB     37       CHL1     C6       CEL1    -0.150000       12.0110           0
      4231 MEMB     37       CHL1     H6       HEL1     0.150000       1.00800           0
      4232 MEMB     37       CHL1     C7       CRL2    -0.180000       12.0110           0
      4233 MEMB     37       CHL1     H7A      HGA2     0.900000E-01   1.00800           0
      4234 MEMB     37       CHL1     H7B      HGA2     0.900000E-01   1.00800           0
      4235 MEMB     37       CHL1     C8       CRL1    -0.900000E-01   12.0110           0
      4236 MEMB     37       CHL1     H8       HGA1     0.900000E-01   1.00800           0
      4237 MEMB     37       CHL1     C14      CRL1    -0.900000E-01   12.0110           0
      4238 MEMB     37       CHL1     H14      HGA1     0.900000E-01   1.00800           0
      4239 MEMB     37       CHL1     C15      CRL2    -0.180000       12.0110           0
      4240 MEMB     37       CHL1     H15A     HGA2     0.900000E-01   1.00800           0
      4241 MEMB     37       CHL1     H15B     HGA2     0.900000E-01   1.00800           0
      4242 MEMB     37       CHL1     C16      CRL2    -0.180000       12.0110           0
      4243 MEMB     37       CHL1     H16A     HGA2     0.900000E-01   1.00800           0
      4244 MEMB     37       CHL1     H16B     HGA2     0.900000E-01   1.00800           0
      4245 MEMB     37       CHL1     C17      CRL1    -0.900000E-01   12.0110           0
      4246 MEMB     37       CHL1     H17      HGA1     0.900000E-01   1.00800           0
      4247 MEMB     37       CHL1     C13      CRL1      0.00000       12.0110           0
      4248 MEMB     37       CHL1     C18      CTL3    -0.270000       12.0110           0
      4249 MEMB     37       CHL1     H18A     HAL3     0.900000E-01   1.00800           0
      4250 MEMB     37       CHL1     H18B     HAL3     0.900000E-01   1.00800           0
      4251 MEMB     37       CHL1     H18C     HAL3     0.900000E-01   1.00800           0
      4252 MEMB     37       CHL1     C12      CRL2    -0.180000       12.0110           0
      4253 MEMB     37       CHL1     H12A     HGA2     0.900000E-01   1.00800           0
      4254 MEMB     37       CHL1     H12B     HGA2     0.900000E-01   1.00800           0
      4255 MEMB     37       CHL1     C11      CRL2    -0.180000       12.0110           0
      4256 MEMB     37       CHL1     H11A     HGA2     0.900000E-01   1.00800           0
      4257 MEMB     37       CHL1     H11B     HGA2     0.900000E-01   1.00800           0
      4258 MEMB     37       CHL1     C9       CRL1    -0.900000E-01   12.0110           0
      4259 MEMB     37       CHL1     H9       HGA1     0.900000E-01   1.00800           0
      4260 MEMB     37       CHL1     C10      CRL1      0.00000       12.0110           0
      4261 MEMB     37       CHL1     C19      CTL3    -0.270000       12.0110           0
      4262 MEMB     37       CHL1     H19A     HAL3     0.900000E-01   1.00800           0
      4263 MEMB     37       CHL1     H19B     HAL3     0.900000E-01   1.00800           0
      4264 MEMB     37       CHL1     H19C     HAL3     0.900000E-01   1.00800           0
      4265 MEMB     37       CHL1     C1       CRL2    -0.180000       12.0110           0
      4266 MEMB     37       CHL1     H1A      HGA2     0.900000E-01   1.00800           0
      4267 MEMB     37       CHL1     H1B      HGA2     0.900000E-01   1.00800           0
      4268 MEMB     37       CHL1     C2       CRL2    -0.180000       12.0110           0
      4269 MEMB     37       CHL1     H2A      HGA2     0.900000E-01   1.00800           0
      4270 MEMB     37       CHL1     H2B      HGA2     0.900000E-01   1.00800           0
      4271 MEMB     37       CHL1     C20      CTL1    -0.900000E-01   12.0110           0
      4272 MEMB     37       CHL1     H20      HAL1     0.900000E-01   1.00800           0
      4273 MEMB     37       CHL1     C21      CTL3    -0.270000       12.0110           0
      4274 MEMB     37       CHL1     H21A     HAL3     0.900000E-01   1.00800           0
      4275 MEMB     37       CHL1     H21B     HAL3     0.900000E-01   1.00800           0
      4276 MEMB     37       CHL1     H21C     HAL3     0.900000E-01   1.00800           0
      4277 MEMB     37       CHL1     C22      CTL2    -0.180000       12.0110           0
      4278 MEMB     37       CHL1     H22A     HAL2     0.900000E-01   1.00800           0
      4279 MEMB     37       CHL1     H22B     HAL2     0.900000E-01   1.00800           0
      4280 MEMB     37       CHL1     C23      CTL2    -0.180000       12.0110           0
      4281 MEMB     37       CHL1     H23A     HAL2     0.900000E-01   1.00800           0
      4282 MEMB     37       CHL1     H23B     HAL2     0.900000E-01   1.00800           0
      4283 MEMB     37       CHL1     C24      CTL2    -0.180000       12.0110           0
      4284 MEMB     37       CHL1     H24A     HAL2     0.900000E-01   1.00800           0
      4285 MEMB     37       CHL1     H24B     HAL2     0.900000E-01   1.00800           0
      4286 MEMB     37       CHL1     C25      CTL1    -0.900000E-01   12.0110           0
      4287 MEMB     37       CHL1     H25      HAL1     0.900000E-01   1.00800           0
      4288 MEMB     37       CHL1     C26      CTL3    -0.270000       12.0110           0
      4289 MEMB     37       CHL1     H26A     HAL3     0.900000E-01   1.00800           0
      4290 MEMB     37       CHL1     H26B     HAL3     0.900000E-01   1.00800           0
      4291 MEMB     37       CHL1     H26C     HAL3     0.900000E-01   1.00800           0
      4292 MEMB     37       CHL1     C27      CTL3    -0.270000       12.0110           0
      4293 MEMB     37       CHL1     H27A     HAL3     0.900000E-01   1.00800           0
      4294 MEMB     37       CHL1     H27B     HAL3     0.900000E-01   1.00800           0
      4295 MEMB     37       CHL1     H27C     HAL3     0.900000E-01   1.00800           0
      4296 MEMB     38       SAPE     N        NH3L    -0.300000       14.0070           0
      4297 MEMB     38       SAPE     HN1      HCL      0.330000       1.00800           0
      4298 MEMB     38       SAPE     HN2      HCL      0.330000       1.00800           0
      4299 MEMB     38       SAPE     HN3      HCL      0.330000       1.00800           0
      4300 MEMB     38       SAPE     C12      CTL2     0.130000       12.0110           0
      4301 MEMB     38       SAPE     H12A     HAL2     0.900000E-01   1.00800           0
      4302 MEMB     38       SAPE     H12B     HAL2     0.900000E-01   1.00800           0
      4303 MEMB     38       SAPE     C11      CTL2    -0.800000E-01   12.0110           0
      4304 MEMB     38       SAPE     H11A     HAL2     0.900000E-01   1.00800           0
      4305 MEMB     38       SAPE     H11B     HAL2     0.900000E-01   1.00800           0
      4306 MEMB     38       SAPE     P        PL        1.50000       30.9740           0
      4307 MEMB     38       SAPE     O13      O2L     -0.780000       15.9994           0
      4308 MEMB     38       SAPE     O14      O2L     -0.780000       15.9994           0
      4309 MEMB     38       SAPE     O12      OSLP    -0.570000       15.9994           0
      4310 MEMB     38       SAPE     O11      OSLP    -0.570000       15.9994           0
      4311 MEMB     38       SAPE     C1       CTL2    -0.800000E-01   12.0110           0
      4312 MEMB     38       SAPE     HA       HAL2     0.900000E-01   1.00800           0
      4313 MEMB     38       SAPE     HB       HAL2     0.900000E-01   1.00800           0
      4314 MEMB     38       SAPE     C2       CTL1     0.170000       12.0110           0
      4315 MEMB     38       SAPE     HS       HAL1     0.900000E-01   1.00800           0
      4316 MEMB     38       SAPE     O21      OSL     -0.490000       15.9994           0
      4317 MEMB     38       SAPE     C21      CL       0.900000       12.0110           0
      4318 MEMB     38       SAPE     O22      OBL     -0.630000       15.9994           0
      4319 MEMB     38       SAPE     C22      CTL2    -0.220000       12.0110           0
      4320 MEMB     38       SAPE     H2R      HAL2     0.900000E-01   1.00800           0
      4321 MEMB     38       SAPE     H2S      HAL2     0.900000E-01   1.00800           0
      4322 MEMB     38       SAPE     C3       CTL2     0.800000E-01   12.0110           0
      4323 MEMB     38       SAPE     HX       HAL2     0.900000E-01   1.00800           0
      4324 MEMB     38       SAPE     HY       HAL2     0.900000E-01   1.00800           0
      4325 MEMB     38       SAPE     O31      OSL     -0.490000       15.9994           0
      4326 MEMB     38       SAPE     C31      CL       0.900000       12.0110           0
      4327 MEMB     38       SAPE     O32      OBL     -0.630000       15.9994           0
      4328 MEMB     38       SAPE     C32      CTL2    -0.220000       12.0110           0
      4329 MEMB     38       SAPE     H2X      HAL2     0.900000E-01   1.00800           0
      4330 MEMB     38       SAPE     H2Y      HAL2     0.900000E-01   1.00800           0
      4331 MEMB     38       SAPE     C23      CTL2    -0.180000       12.0110           0
      4332 MEMB     38       SAPE     H3R      HAL2     0.900000E-01   1.00800           0
      4333 MEMB     38       SAPE     H3S      HAL2     0.900000E-01   1.00800           0
      4334 MEMB     38       SAPE     C24      CTL2    -0.180000       12.0110           0
      4335 MEMB     38       SAPE     H4R      HAL2     0.900000E-01   1.00800           0
      4336 MEMB     38       SAPE     H4S      HAL2     0.900000E-01   1.00800           0
      4337 MEMB     38       SAPE     C25      CEL1    -0.150000       12.0110           0
      4338 MEMB     38       SAPE     H5R      HEL1     0.150000       1.00800           0
      4339 MEMB     38       SAPE     C26      CEL1    -0.150000       12.0110           0
      4340 MEMB     38       SAPE     H6R      HEL1     0.150000       1.00800           0
      4341 MEMB     38       SAPE     C27      CTL2    -0.180000       12.0110           0
      4342 MEMB     38       SAPE     H7R      HAL2     0.900000E-01   1.00800           0
      4343 MEMB     38       SAPE     H7S      HAL2     0.900000E-01   1.00800           0
      4344 MEMB     38       SAPE     C28      CEL1    -0.150000       12.0110           0
      4345 MEMB     38       SAPE     H8R      HEL1     0.150000       1.00800           0
      4346 MEMB     38       SAPE     C29      CEL1    -0.150000       12.0110           0
      4347 MEMB     38       SAPE     H9R      HEL1     0.150000       1.00800           0
      4348 MEMB     38       SAPE     C210     CTL2    -0.180000       12.0110           0
      4349 MEMB     38       SAPE     H10R     HAL2     0.900000E-01   1.00800           0
      4350 MEMB     38       SAPE     H10S     HAL2     0.900000E-01   1.00800           0
      4351 MEMB     38       SAPE     C211     CEL1    -0.150000       12.0110           0
      4352 MEMB     38       SAPE     H11R     HEL1     0.150000       1.00800           0
      4353 MEMB     38       SAPE     C212     CEL1    -0.150000       12.0110           0
      4354 MEMB     38       SAPE     H12R     HEL1     0.150000       1.00800           0
      4355 MEMB     38       SAPE     C213     CTL2    -0.180000       12.0110           0
      4356 MEMB     38       SAPE     H13R     HAL2     0.900000E-01   1.00800           0
      4357 MEMB     38       SAPE     H13S     HAL2     0.900000E-01   1.00800           0
      4358 MEMB     38       SAPE     C214     CEL1    -0.150000       12.0110           0
      4359 MEMB     38       SAPE     H14R     HEL1     0.150000       1.00800           0
      4360 MEMB     38       SAPE     C215     CEL1    -0.150000       12.0110           0
      4361 MEMB     38       SAPE     H15R     HEL1     0.150000       1.00800           0
      4362 MEMB     38       SAPE     C216     CTL2    -0.180000       12.0110           0
      4363 MEMB     38       SAPE     H16R     HAL2     0.900000E-01   1.00800           0
      4364 MEMB     38       SAPE     H16S     HAL2     0.900000E-01   1.00800           0
      4365 MEMB     38       SAPE     C217     CTL2    -0.180000       12.0110           0
      4366 MEMB     38       SAPE     H17R     HAL2     0.900000E-01   1.00800           0
      4367 MEMB     38       SAPE     H17S     HAL2     0.900000E-01   1.00800           0
      4368 MEMB     38       SAPE     C218     CTL2    -0.180000       12.0110           0
      4369 MEMB     38       SAPE     H18R     HAL2     0.900000E-01   1.00800           0
      4370 MEMB     38       SAPE     H18S     HAL2     0.900000E-01   1.00800           0
      4371 MEMB     38       SAPE     C219     CTL2    -0.180000       12.0110           0
      4372 MEMB     38       SAPE     H19R     HAL2     0.900000E-01   1.00800           0
      4373 MEMB     38       SAPE     H19S     HAL2     0.900000E-01   1.00800           0
      4374 MEMB     38       SAPE     C220     CTL3    -0.270000       12.0110           0
      4375 MEMB     38       SAPE     H20R     HAL3     0.900000E-01   1.00800           0
      4376 MEMB     38       SAPE     H20S     HAL3     0.900000E-01   1.00800           0
      4377 MEMB     38       SAPE     H20T     HAL3     0.900000E-01   1.00800           0
      4378 MEMB     38       SAPE     C33      CTL2    -0.180000       12.0110           0
      4379 MEMB     38       SAPE     H3X      HAL2     0.900000E-01   1.00800           0
      4380 MEMB     38       SAPE     H3Y      HAL2     0.900000E-01   1.00800           0
      4381 MEMB     38       SAPE     C34      CTL2    -0.180000       12.0110           0
      4382 MEMB     38       SAPE     H4X      HAL2     0.900000E-01   1.00800           0
      4383 MEMB     38       SAPE     H4Y      HAL2     0.900000E-01   1.00800           0
      4384 MEMB     38       SAPE     C35      CTL2    -0.180000       12.0110           0
      4385 MEMB     38       SAPE     H5X      HAL2     0.900000E-01   1.00800           0
      4386 MEMB     38       SAPE     H5Y      HAL2     0.900000E-01   1.00800           0
      4387 MEMB     38       SAPE     C36      CTL2    -0.180000       12.0110           0
      4388 MEMB     38       SAPE     H6X      HAL2     0.900000E-01   1.00800           0
      4389 MEMB     38       SAPE     H6Y      HAL2     0.900000E-01   1.00800           0
      4390 MEMB     38       SAPE     C37      CTL2    -0.180000       12.0110           0
      4391 MEMB     38       SAPE     H7X      HAL2     0.900000E-01   1.00800           0
      4392 MEMB     38       SAPE     H7Y      HAL2     0.900000E-01   1.00800           0
      4393 MEMB     38       SAPE     C38      CTL2    -0.180000       12.0110           0
      4394 MEMB     38       SAPE     H8X      HAL2     0.900000E-01   1.00800           0
      4395 MEMB     38       SAPE     H8Y      HAL2     0.900000E-01   1.00800           0
      4396 MEMB     38       SAPE     C39      CTL2    -0.180000       12.0110           0
      4397 MEMB     38       SAPE     H9X      HAL2     0.900000E-01   1.00800           0
      4398 MEMB     38       SAPE     H9Y      HAL2     0.900000E-01   1.00800           0
      4399 MEMB     38       SAPE     C310     CTL2    -0.180000       12.0110           0
      4400 MEMB     38       SAPE     H10X     HAL2     0.900000E-01   1.00800           0
      4401 MEMB     38       SAPE     H10Y     HAL2     0.900000E-01   1.00800           0
      4402 MEMB     38       SAPE     C311     CTL2    -0.180000       12.0110           0
      4403 MEMB     38       SAPE     H11X     HAL2     0.900000E-01   1.00800           0
      4404 MEMB     38       SAPE     H11Y     HAL2     0.900000E-01   1.00800           0
      4405 MEMB     38       SAPE     C312     CTL2    -0.180000       12.0110           0
      4406 MEMB     38       SAPE     H12X     HAL2     0.900000E-01   1.00800           0
      4407 MEMB     38       SAPE     H12Y     HAL2     0.900000E-01   1.00800           0
      4408 MEMB     38       SAPE     C313     CTL2    -0.180000       12.0110           0
      4409 MEMB     38       SAPE     H13X     HAL2     0.900000E-01   1.00800           0
      4410 MEMB     38       SAPE     H13Y     HAL2     0.900000E-01   1.00800           0
      4411 MEMB     38       SAPE     C314     CTL2    -0.180000       12.0110           0
      4412 MEMB     38       SAPE     H14X     HAL2     0.900000E-01   1.00800           0
      4413 MEMB     38       SAPE     H14Y     HAL2     0.900000E-01   1.00800           0
      4414 MEMB     38       SAPE     C315     CTL2    -0.180000       12.0110           0
      4415 MEMB     38       SAPE     H15X     HAL2     0.900000E-01   1.00800           0
      4416 MEMB     38       SAPE     H15Y     HAL2     0.900000E-01   1.00800           0
      4417 MEMB     38       SAPE     C316     CTL2    -0.180000       12.0110           0
      4418 MEMB     38       SAPE     H16X     HAL2     0.900000E-01   1.00800           0
      4419 MEMB     38       SAPE     H16Y     HAL2     0.900000E-01   1.00800           0
      4420 MEMB     38       SAPE     C317     CTL2    -0.180000       12.0110           0
      4421 MEMB     38       SAPE     H17X     HAL2     0.900000E-01   1.00800           0
      4422 MEMB     38       SAPE     H17Y     HAL2     0.900000E-01   1.00800           0
      4423 MEMB     38       SAPE     C318     CTL3    -0.270000       12.0110           0
      4424 MEMB     38       SAPE     H18X     HAL3     0.900000E-01   1.00800           0
      4425 MEMB     38       SAPE     H18Y     HAL3     0.900000E-01   1.00800           0
      4426 MEMB     38       SAPE     H18Z     HAL3     0.900000E-01   1.00800           0
      4427 MEMB     39       CHL1     C3       CRL1     0.140000       12.0110           0
      4428 MEMB     39       CHL1     H3       HGA1     0.900000E-01   1.00800           0
      4429 MEMB     39       CHL1     O3       OHL     -0.660000       15.9994           0
      4430 MEMB     39       CHL1     H3'      HOL      0.430000       1.00800           0
      4431 MEMB     39       CHL1     C4       CRL2    -0.180000       12.0110           0
      4432 MEMB     39       CHL1     H4A      HGA2     0.900000E-01   1.00800           0
      4433 MEMB     39       CHL1     H4B      HGA2     0.900000E-01   1.00800           0
      4434 MEMB     39       CHL1     C5       CEL1      0.00000       12.0110           0
      4435 MEMB     39       CHL1     C6       CEL1    -0.150000       12.0110           0
      4436 MEMB     39       CHL1     H6       HEL1     0.150000       1.00800           0
      4437 MEMB     39       CHL1     C7       CRL2    -0.180000       12.0110           0
      4438 MEMB     39       CHL1     H7A      HGA2     0.900000E-01   1.00800           0
      4439 MEMB     39       CHL1     H7B      HGA2     0.900000E-01   1.00800           0
      4440 MEMB     39       CHL1     C8       CRL1    -0.900000E-01   12.0110           0
      4441 MEMB     39       CHL1     H8       HGA1     0.900000E-01   1.00800           0
      4442 MEMB     39       CHL1     C14      CRL1    -0.900000E-01   12.0110           0
      4443 MEMB     39       CHL1     H14      HGA1     0.900000E-01   1.00800           0
      4444 MEMB     39       CHL1     C15      CRL2    -0.180000       12.0110           0
      4445 MEMB     39       CHL1     H15A     HGA2     0.900000E-01   1.00800           0
      4446 MEMB     39       CHL1     H15B     HGA2     0.900000E-01   1.00800           0
      4447 MEMB     39       CHL1     C16      CRL2    -0.180000       12.0110           0
      4448 MEMB     39       CHL1     H16A     HGA2     0.900000E-01   1.00800           0
      4449 MEMB     39       CHL1     H16B     HGA2     0.900000E-01   1.00800           0
      4450 MEMB     39       CHL1     C17      CRL1    -0.900000E-01   12.0110           0
      4451 MEMB     39       CHL1     H17      HGA1     0.900000E-01   1.00800           0
      4452 MEMB     39       CHL1     C13      CRL1      0.00000       12.0110           0
      4453 MEMB     39       CHL1     C18      CTL3    -0.270000       12.0110           0
      4454 MEMB     39       CHL1     H18A     HAL3     0.900000E-01   1.00800           0
      4455 MEMB     39       CHL1     H18B     HAL3     0.900000E-01   1.00800           0
      4456 MEMB     39       CHL1     H18C     HAL3     0.900000E-01   1.00800           0
      4457 MEMB     39       CHL1     C12      CRL2    -0.180000       12.0110           0
      4458 MEMB     39       CHL1     H12A     HGA2     0.900000E-01   1.00800           0
      4459 MEMB     39       CHL1     H12B     HGA2     0.900000E-01   1.00800           0
      4460 MEMB     39       CHL1     C11      CRL2    -0.180000       12.0110           0
      4461 MEMB     39       CHL1     H11A     HGA2     0.900000E-01   1.00800           0
      4462 MEMB     39       CHL1     H11B     HGA2     0.900000E-01   1.00800           0
      4463 MEMB     39       CHL1     C9       CRL1    -0.900000E-01   12.0110           0
      4464 MEMB     39       CHL1     H9       HGA1     0.900000E-01   1.00800           0
      4465 MEMB     39       CHL1     C10      CRL1      0.00000       12.0110           0
      4466 MEMB     39       CHL1     C19      CTL3    -0.270000       12.0110           0
      4467 MEMB     39       CHL1     H19A     HAL3     0.900000E-01   1.00800           0
      4468 MEMB     39       CHL1     H19B     HAL3     0.900000E-01   1.00800           0
      4469 MEMB     39       CHL1     H19C     HAL3     0.900000E-01   1.00800           0
      4470 MEMB     39       CHL1     C1       CRL2    -0.180000       12.0110           0
      4471 MEMB     39       CHL1     H1A      HGA2     0.900000E-01   1.00800           0
      4472 MEMB     39       CHL1     H1B      HGA2     0.900000E-01   1.00800           0
      4473 MEMB     39       CHL1     C2       CRL2    -0.180000       12.0110           0
      4474 MEMB     39       CHL1     H2A      HGA2     0.900000E-01   1.00800           0
      4475 MEMB     39       CHL1     H2B      HGA2     0.900000E-01   1.00800           0
      4476 MEMB     39       CHL1     C20      CTL1    -0.900000E-01   12.0110           0
      4477 MEMB     39       CHL1     H20      HAL1     0.900000E-01   1.00800           0
      4478 MEMB     39       CHL1     C21      CTL3    -0.270000       12.0110           0
      4479 MEMB     39       CHL1     H21A     HAL3     0.900000E-01   1.00800           0
      4480 MEMB     39       CHL1     H21B     HAL3     0.900000E-01   1.00800           0
      4481 MEMB     39       CHL1     H21C     HAL3     0.900000E-01   1.00800           0
      4482 MEMB     39       CHL1     C22      CTL2    -0.180000       12.0110           0
      4483 MEMB     39       CHL1     H22A     HAL2     0.900000E-01   1.00800           0
      4484 MEMB     39       CHL1     H22B     HAL2     0.900000E-01   1.00800           0
      4485 MEMB     39       CHL1     C23      CTL2    -0.180000       12.0110           0
      4486 MEMB     39       CHL1     H23A     HAL2     0.900000E-01   1.00800           0
      4487 MEMB     39       CHL1     H23B     HAL2     0.900000E-01   1.00800           0
      4488 MEMB     39       CHL1     C24      CTL2    -0.180000       12.0110           0
      4489 MEMB     39       CHL1     H24A     HAL2     0.900000E-01   1.00800           0
      4490 MEMB     39       CHL1     H24B     HAL2     0.900000E-01   1.00800           0
      4491 MEMB     39       CHL1     C25      CTL1    -0.900000E-01   12.0110           0
      4492 MEMB     39       CHL1     H25      HAL1     0.900000E-01   1.00800           0
      4493 MEMB     39       CHL1     C26      CTL3    -0.270000       12.0110           0
      4494 MEMB     39       CHL1     H26A     HAL3     0.900000E-01   1.00800           0
      4495 MEMB     39       CHL1     H26B     HAL3     0.900000E-01   1.00800           0
      4496 MEMB     39       CHL1     H26C     HAL3     0.900000E-01   1.00800           0
      4497 MEMB     39       CHL1     C27      CTL3    -0.270000       12.0110           0
      4498 MEMB     39       CHL1     H27A     HAL3     0.900000E-01   1.00800           0
      4499 MEMB     39       CHL1     H27B     HAL3     0.900000E-01   1.00800           0
      4500 MEMB     39       CHL1     H27C     HAL3     0.900000E-01   1.00800           0
      4501 MEMB     40       CHL1     C3       CRL1     0.140000       12.0110           0
      4502 MEMB     40       CHL1     H3       HGA1     0.900000E-01   1.00800           0
      4503 MEMB     40       CHL1     O3       OHL     -0.660000       15.9994           0
      4504 MEMB     40       CHL1     H3'      HOL      0.430000       1.00800           0
      4505 MEMB     40       CHL1     C4       CRL2    -0.180000       12.0110           0
      4506 MEMB     40       CHL1     H4A      HGA2     0.900000E-01   1.00800           0
      4507 MEMB     40       CHL1     H4B      HGA2     0.900000E-01   1.00800           0
      4508 MEMB     40       CHL1     C5       CEL1      0.00000       12.0110           0
      4509 MEMB     40       CHL1     C6       CEL1    -0.150000       12.0110           0
      4510 MEMB     40       CHL1     H6       HEL1     0.150000       1.00800           0
      4511 MEMB     40       CHL1     C7       CRL2    -0.180000       12.0110           0
      4512 MEMB     40       CHL1     H7A      HGA2     0.900000E-01   1.00800           0
      4513 MEMB     40       CHL1     H7B      HGA2     0.900000E-01   1.00800           0
      4514 MEMB     40       CHL1     C8       CRL1    -0.900000E-01   12.0110           0
      4515 MEMB     40       CHL1     H8       HGA1     0.900000E-01   1.00800           0
      4516 MEMB     40       CHL1     C14      CRL1    -0.900000E-01   12.0110           0
      4517 MEMB     40       CHL1     H14      HGA1     0.900000E-01   1.00800           0
      4518 MEMB     40       CHL1     C15      CRL2    -0.180000       12.0110           0
      4519 MEMB     40       CHL1     H15A     HGA2     0.900000E-01   1.00800           0
      4520 MEMB     40       CHL1     H15B     HGA2     0.900000E-01   1.00800           0
      4521 MEMB     40       CHL1     C16      CRL2    -0.180000       12.0110           0
      4522 MEMB     40       CHL1     H16A     HGA2     0.900000E-01   1.00800           0
      4523 MEMB     40       CHL1     H16B     HGA2     0.900000E-01   1.00800           0
      4524 MEMB     40       CHL1     C17      CRL1    -0.900000E-01   12.0110           0
      4525 MEMB     40       CHL1     H17      HGA1     0.900000E-01   1.00800           0
      4526 MEMB     40       CHL1     C13      CRL1      0.00000       12.0110           0
      4527 MEMB     40       CHL1     C18      CTL3    -0.270000       12.0110           0
      4528 MEMB     40       CHL1     H18A     HAL3     0.900000E-01   1.00800           0
      4529 MEMB     40       CHL1     H18B     HAL3     0.900000E-01   1.00800           0
      4530 MEMB     40       CHL1     H18C     HAL3     0.900000E-01   1.00800           0
      4531 MEMB     40       CHL1     C12      CRL2    -0.180000       12.0110           0
      4532 MEMB     40       CHL1     H12A     HGA2     0.900000E-01   1.00800           0
      4533 MEMB     40       CHL1     H12B     HGA2     0.900000E-01   1.00800           0
      4534 MEMB     40       CHL1     C11      CRL2    -0.180000       12.0110           0
      4535 MEMB     40       CHL1     H11A     HGA2     0.900000E-01   1.00800           0
      4536 MEMB     40       CHL1     H11B     HGA2     0.900000E-01   1.00800           0
      4537 MEMB     40       CHL1     C9       CRL1    -0.900000E-01   12.0110           0
      4538 MEMB     40       CHL1     H9       HGA1     0.900000E-01   1.00800           0
      4539 MEMB     40       CHL1     C10      CRL1      0.00000       12.0110           0
      4540 MEMB     40       CHL1     C19      CTL3    -0.270000       12.0110           0
      4541 MEMB     40       CHL1     H19A     HAL3     0.900000E-01   1.00800           0
      4542 MEMB     40       CHL1     H19B     HAL3     0.900000E-01   1.00800           0
      4543 MEMB     40       CHL1     H19C     HAL3     0.900000E-01   1.00800           0
      4544 MEMB     40       CHL1     C1       CRL2    -0.180000       12.0110           0
      4545 MEMB     40       CHL1     H1A      HGA2     0.900000E-01   1.00800           0
      4546 MEMB     40       CHL1     H1B      HGA2     0.900000E-01   1.00800           0
      4547 MEMB     40       CHL1     C2       CRL2    -0.180000       12.0110           0
      4548 MEMB     40       CHL1     H2A      HGA2     0.900000E-01   1.00800           0
      4549 MEMB     40       CHL1     H2B      HGA2     0.900000E-01   1.00800           0
      4550 MEMB     40       CHL1     C20      CTL1    -0.900000E-01   12.0110           0
      4551 MEMB     40       CHL1     H20      HAL1     0.900000E-01   1.00800           0
      4552 MEMB     40       CHL1     C21      CTL3    -0.270000       12.0110           0
      4553 MEMB     40       CHL1     H21A     HAL3     0.900000E-01   1.00800           0
      4554 MEMB     40       CHL1     H21B     HAL3     0.900000E-01   1.00800           0
      4555 MEMB     40       CHL1     H21C     HAL3     0.900000E-01   1.00800           0
      4556 MEMB     40       CHL1     C22      CTL2    -0.180000       12.0110           0
      4557 MEMB     40       CHL1     H22A     HAL2     0.900000E-01   1.00800           0
      4558 MEMB     40       CHL1     H22B     HAL2     0.900000E-01   1.00800           0
      4559 MEMB     40       CHL1     C23      CTL2    -0.180000       12.0110           0
      4560 MEMB     40       CHL1     H23A     HAL2     0.900000E-01   1.00800           0
      4561 MEMB     40       CHL1     H23B     HAL2     0.900000E-01   1.00800           0
      4562 MEMB     40       CHL1     C24      CTL2    -0.180000       12.0110           0
      4563 MEMB     40       CHL1     H24A     HAL2     0.900000E-01   1.00800           0
      4564 MEMB     40       CHL1     H24B     HAL2     0.900000E-01   1.00800           0
      4565 MEMB     40       CHL1     C25      CTL1    -0.900000E-01   12.0110           0
      4566 MEMB     40       CHL1     H25      HAL1     0.900000E-01   1.00800           0
      4567 MEMB     40       CHL1     C26      CTL3    -0.270000       12.0110           0
      4568 MEMB     40       CHL1     H26A     HAL3     0.900000E-01   1.00800           0
      4569 MEMB     40       CHL1     H26B     HAL3     0.900000E-01   1.00800           0
      4570 MEMB     40       CHL1     H26C     HAL3     0.900000E-01   1.00800           0
      4571 MEMB     40       CHL1     C27      CTL3    -0.270000       12.0110           0
      4572 MEMB     40       CHL1     H27A     HAL3     0.900000E-01   1.00800           0
      4573 MEMB     40       CHL1     H27B     HAL3     0.900000E-01   1.00800           0
      4574 MEMB     40       CHL1     H27C     HAL3     0.900000E-01   1.00800           0
      4575 MEMB     41       SOPE     N        NH3L    -0.300000       14.0070           0
      4576 MEMB     41       SOPE     HN1      HCL      0.330000       1.00800           0
      4577 MEMB     41       SOPE     HN2      HCL      0.330000       1.00800           0
      4578 MEMB     41       SOPE     HN3      HCL      0.330000       1.00800           0
      4579 MEMB     41       SOPE     C12      CTL2     0.130000       12.0110           0
      4580 MEMB     41       SOPE     H12A     HAL2     0.900000E-01   1.00800           0
      4581 MEMB     41       SOPE     H12B     HAL2     0.900000E-01   1.00800           0
      4582 MEMB     41       SOPE     C11      CTL2    -0.800000E-01   12.0110           0
      4583 MEMB     41       SOPE     H11A     HAL2     0.900000E-01   1.00800           0
      4584 MEMB     41       SOPE     H11B     HAL2     0.900000E-01   1.00800           0
      4585 MEMB     41       SOPE     P        PL        1.50000       30.9740           0
      4586 MEMB     41       SOPE     O13      O2L     -0.780000       15.9994           0
      4587 MEMB     41       SOPE     O14      O2L     -0.780000       15.9994           0
      4588 MEMB     41       SOPE     O12      OSLP    -0.570000       15.9994           0
      4589 MEMB     41       SOPE     O11      OSLP    -0.570000       15.9994           0
      4590 MEMB     41       SOPE     C1       CTL2    -0.800000E-01   12.0110           0
      4591 MEMB     41       SOPE     HA       HAL2     0.900000E-01   1.00800           0
      4592 MEMB     41       SOPE     HB       HAL2     0.900000E-01   1.00800           0
      4593 MEMB     41       SOPE     C2       CTL1     0.170000       12.0110           0
      4594 MEMB     41       SOPE     HS       HAL1     0.900000E-01   1.00800           0
      4595 MEMB     41       SOPE     O21      OSL     -0.490000       15.9994           0
      4596 MEMB     41       SOPE     C21      CL       0.900000       12.0110           0
      4597 MEMB     41       SOPE     O22      OBL     -0.630000       15.9994           0
      4598 MEMB     41       SOPE     C22      CTL2    -0.220000       12.0110           0
      4599 MEMB     41       SOPE     H2R      HAL2     0.900000E-01   1.00800           0
      4600 MEMB     41       SOPE     H2S      HAL2     0.900000E-01   1.00800           0
      4601 MEMB     41       SOPE     C3       CTL2     0.800000E-01   12.0110           0
      4602 MEMB     41       SOPE     HX       HAL2     0.900000E-01   1.00800           0
      4603 MEMB     41       SOPE     HY       HAL2     0.900000E-01   1.00800           0
      4604 MEMB     41       SOPE     O31      OSL     -0.490000       15.9994           0
      4605 MEMB     41       SOPE     C31      CL       0.900000       12.0110           0
      4606 MEMB     41       SOPE     O32      OBL     -0.630000       15.9994           0
      4607 MEMB     41       SOPE     C32      CTL2    -0.220000       12.0110           0
      4608 MEMB     41       SOPE     H2X      HAL2     0.900000E-01   1.00800           0
      4609 MEMB     41       SOPE     H2Y      HAL2     0.900000E-01   1.00800           0
      4610 MEMB     41       SOPE     C23      CTL2    -0.180000       12.0110           0
      4611 MEMB     41       SOPE     H3R      HAL2     0.900000E-01   1.00800           0
      4612 MEMB     41       SOPE     H3S      HAL2     0.900000E-01   1.00800           0
      4613 MEMB     41       SOPE     C24      CTL2    -0.180000       12.0110           0
      4614 MEMB     41       SOPE     H4R      HAL2     0.900000E-01   1.00800           0
      4615 MEMB     41       SOPE     H4S      HAL2     0.900000E-01   1.00800           0
      4616 MEMB     41       SOPE     C25      CTL2    -0.180000       12.0110           0
      4617 MEMB     41       SOPE     H5R      HAL2     0.900000E-01   1.00800           0
      4618 MEMB     41       SOPE     H5S      HAL2     0.900000E-01   1.00800           0
      4619 MEMB     41       SOPE     C26      CTL2    -0.180000       12.0110           0
      4620 MEMB     41       SOPE     H6R      HAL2     0.900000E-01   1.00800           0
      4621 MEMB     41       SOPE     H6S      HAL2     0.900000E-01   1.00800           0
      4622 MEMB     41       SOPE     C27      CTL2    -0.180000       12.0110           0
      4623 MEMB     41       SOPE     H7R      HAL2     0.900000E-01   1.00800           0
      4624 MEMB     41       SOPE     H7S      HAL2     0.900000E-01   1.00800           0
      4625 MEMB     41       SOPE     C28      CTL2    -0.180000       12.0110           0
      4626 MEMB     41       SOPE     H8R      HAL2     0.900000E-01   1.00800           0
      4627 MEMB     41       SOPE     H8S      HAL2     0.900000E-01   1.00800           0
      4628 MEMB     41       SOPE     C29      CEL1    -0.150000       12.0110           0
      4629 MEMB     41       SOPE     H91      HEL1     0.150000       1.00800           0
      4630 MEMB     41       SOPE     C210     CEL1    -0.150000       12.0110           0
      4631 MEMB     41       SOPE     H101     HEL1     0.150000       1.00800           0
      4632 MEMB     41       SOPE     C211     CTL2    -0.180000       12.0110           0
      4633 MEMB     41       SOPE     H11R     HAL2     0.900000E-01   1.00800           0
      4634 MEMB     41       SOPE     H11S     HAL2     0.900000E-01   1.00800           0
      4635 MEMB     41       SOPE     C212     CTL2    -0.180000       12.0110           0
      4636 MEMB     41       SOPE     H12R     HAL2     0.900000E-01   1.00800           0
      4637 MEMB     41       SOPE     H12S     HAL2     0.900000E-01   1.00800           0
      4638 MEMB     41       SOPE     C213     CTL2    -0.180000       12.0110           0
      4639 MEMB     41       SOPE     H13R     HAL2     0.900000E-01   1.00800           0
      4640 MEMB     41       SOPE     H13S     HAL2     0.900000E-01   1.00800           0
      4641 MEMB     41       SOPE     C214     CTL2    -0.180000       12.0110           0
      4642 MEMB     41       SOPE     H14R     HAL2     0.900000E-01   1.00800           0
      4643 MEMB     41       SOPE     H14S     HAL2     0.900000E-01   1.00800           0
      4644 MEMB     41       SOPE     C215     CTL2    -0.180000       12.0110           0
      4645 MEMB     41       SOPE     H15R     HAL2     0.900000E-01   1.00800           0
      4646 MEMB     41       SOPE     H15S     HAL2     0.900000E-01   1.00800           0
      4647 MEMB     41       SOPE     C216     CTL2    -0.180000       12.0110           0
      4648 MEMB     41       SOPE     H16R     HAL2     0.900000E-01   1.00800           0
      4649 MEMB     41       SOPE     H16S     HAL2     0.900000E-01   1.00800           0
      4650 MEMB     41       SOPE     C217     CTL2    -0.180000       12.0110           0
      4651 MEMB     41       SOPE     H17R     HAL2     0.900000E-01   1.00800           0
      4652 MEMB     41       SOPE     H17S     HAL2     0.900000E-01   1.00800           0
      4653 MEMB     41       SOPE     C218     CTL3    -0.270000       12.0110           0
      4654 MEMB     41       SOPE     H18R     HAL3     0.900000E-01   1.00800           0
      4655 MEMB     41       SOPE     H18S     HAL3     0.900000E-01   1.00800           0
      4656 MEMB     41       SOPE     H18T     HAL3     0.900000E-01   1.00800           0
      4657 MEMB     41       SOPE     C33      CTL2    -0.180000       12.0110           0
      4658 MEMB     41       SOPE     H3X      HAL2     0.900000E-01   1.00800           0
      4659 MEMB     41       SOPE     H3Y      HAL2     0.900000E-01   1.00800           0
      4660 MEMB     41       SOPE     C34      CTL2    -0.180000       12.0110           0
      4661 MEMB     41       SOPE     H4X      HAL2     0.900000E-01   1.00800           0
      4662 MEMB     41       SOPE     H4Y      HAL2     0.900000E-01   1.00800           0
      4663 MEMB     41       SOPE     C35      CTL2    -0.180000       12.0110           0
      4664 MEMB     41       SOPE     H5X      HAL2     0.900000E-01   1.00800           0
      4665 MEMB     41       SOPE     H5Y      HAL2     0.900000E-01   1.00800           0
      4666 MEMB     41       SOPE     C36      CTL2    -0.180000       12.0110           0
      4667 MEMB     41       SOPE     H6X      HAL2     0.900000E-01   1.00800           0
      4668 MEMB     41       SOPE     H6Y      HAL2     0.900000E-01   1.00800           0
      4669 MEMB     41       SOPE     C37      CTL2    -0.180000       12.0110           0
      4670 MEMB     41       SOPE     H7X      HAL2     0.900000E-01   1.00800           0
      4671 MEMB     41       SOPE     H7Y      HAL2     0.900000E-01   1.00800           0
      4672 MEMB     41       SOPE     C38      CTL2    -0.180000       12.0110           0
      4673 MEMB     41       SOPE     H8X      HAL2     0.900000E-01   1.00800           0
      4674 MEMB     41       SOPE     H8Y      HAL2     0.900000E-01   1.00800           0
      4675 MEMB     41       SOPE     C39      CTL2    -0.180000       12.0110           0
      4676 MEMB     41       SOPE     H9X      HAL2     0.900000E-01   1.00800           0
      4677 MEMB     41       SOPE     H9Y      HAL2     0.900000E-01   1.00800           0
      4678 MEMB     41       SOPE     C310     CTL2    -0.180000       12.0110           0
      4679 MEMB     41       SOPE     H10X     HAL2     0.900000E-01   1.00800           0
      4680 MEMB     41       SOPE     H10Y     HAL2     0.900000E-01   1.00800           0
      4681 MEMB     41       SOPE     C311     CTL2    -0.180000       12.0110           0
      4682 MEMB     41       SOPE     H11X     HAL2     0.900000E-01   1.00800           0
      4683 MEMB     41       SOPE     H11Y     HAL2     0.900000E-01   1.00800           0
      4684 MEMB     41       SOPE     C312     CTL2    -0.180000       12.0110           0
      4685 MEMB     41       SOPE     H12X     HAL2     0.900000E-01   1.00800           0
      4686 MEMB     41       SOPE     H12Y     HAL2     0.900000E-01   1.00800           0
      4687 MEMB     41       SOPE     C313     CTL2    -0.180000       12.0110           0
      4688 MEMB     41       SOPE     H13X     HAL2     0.900000E-01   1.00800           0
      4689 MEMB     41       SOPE     H13Y     HAL2     0.900000E-01   1.00800           0
      4690 MEMB     41       SOPE     C314     CTL2    -0.180000       12.0110           0
      4691 MEMB     41       SOPE     H14X     HAL2     0.900000E-01   1.00800           0
      4692 MEMB     41       SOPE     H14Y     HAL2     0.900000E-01   1.00800           0
      4693 MEMB     41       SOPE     C315     CTL2    -0.180000       12.0110           0
      4694 MEMB     41       SOPE     H15X     HAL2     0.900000E-01   1.00800           0
      4695 MEMB     41       SOPE     H15Y     HAL2     0.900000E-01   1.00800           0
      4696 MEMB     41       SOPE     C316     CTL2    -0.180000       12.0110           0
      4697 MEMB     41       SOPE     H16X     HAL2     0.900000E-01   1.00800           0
      4698 MEMB     41       SOPE     H16Y     HAL2     0.900000E-01   1.00800           0
      4699 MEMB     41       SOPE     C317     CTL2    -0.180000       12.0110           0
      4700 MEMB     41       SOPE     H17X     HAL2     0.900000E-01   1.00800           0
      4701 MEMB     41       SOPE     H17Y     HAL2     0.900000E-01   1.00800           0
      4702 MEMB     41       SOPE     C318     CTL3    -0.270000       12.0110           0
      4703 MEMB     41       SOPE     H18X     HAL3     0.900000E-01   1.00800           0
      4704 MEMB     41       SOPE     H18Y     HAL3     0.900000E-01   1.00800           0
      4705 MEMB     41       SOPE     H18Z     HAL3     0.900000E-01   1.00800           0
      4706 MEMB     42       SLPC     N        NTL     -0.600000       14.0070           0
      4707 MEMB     42       SLPC     C13      CTL5    -0.350000       12.0110           0
      4708 MEMB     42       SLPC     H13A     HL       0.250000       1.00800           0
      4709 MEMB     42       SLPC     H13B     HL       0.250000       1.00800           0
      4710 MEMB     42       SLPC     H13C     HL       0.250000       1.00800           0
      4711 MEMB     42       SLPC     C14      CTL5    -0.350000       12.0110           0
      4712 MEMB     42       SLPC     H14A     HL       0.250000       1.00800           0
      4713 MEMB     42       SLPC     H14B     HL       0.250000       1.00800           0
      4714 MEMB     42       SLPC     H14C     HL       0.250000       1.00800           0
      4715 MEMB     42       SLPC     C15      CTL5    -0.350000       12.0110           0
      4716 MEMB     42       SLPC     H15A     HL       0.250000       1.00800           0
      4717 MEMB     42       SLPC     H15B     HL       0.250000       1.00800           0
      4718 MEMB     42       SLPC     H15C     HL       0.250000       1.00800           0
      4719 MEMB     42       SLPC     C12      CTL2    -0.100000       12.0110           0
      4720 MEMB     42       SLPC     H12A     HL       0.250000       1.00800           0
      4721 MEMB     42       SLPC     H12B     HL       0.250000       1.00800           0
      4722 MEMB     42       SLPC     C11      CTL2    -0.800000E-01   12.0110           0
      4723 MEMB     42       SLPC     H11A     HAL2     0.900000E-01   1.00800           0
      4724 MEMB     42       SLPC     H11B     HAL2     0.900000E-01   1.00800           0
      4725 MEMB     42       SLPC     P        PL        1.50000       30.9740           0
      4726 MEMB     42       SLPC     O13      O2L     -0.780000       15.9994           0
      4727 MEMB     42       SLPC     O14      O2L     -0.780000       15.9994           0
      4728 MEMB     42       SLPC     O12      OSLP    -0.570000       15.9994           0
      4729 MEMB     42       SLPC     O11      OSLP    -0.570000       15.9994           0
      4730 MEMB     42       SLPC     C1       CTL2    -0.800000E-01   12.0110           0
      4731 MEMB     42       SLPC     HA       HAL2     0.900000E-01   1.00800           0
      4732 MEMB     42       SLPC     HB       HAL2     0.900000E-01   1.00800           0
      4733 MEMB     42       SLPC     C2       CTL1     0.170000       12.0110           0
      4734 MEMB     42       SLPC     HS       HAL1     0.900000E-01   1.00800           0
      4735 MEMB     42       SLPC     O21      OSL     -0.490000       15.9994           0
      4736 MEMB     42       SLPC     C21      CL       0.900000       12.0110           0
      4737 MEMB     42       SLPC     O22      OBL     -0.630000       15.9994           0
      4738 MEMB     42       SLPC     C22      CTL2    -0.220000       12.0110           0
      4739 MEMB     42       SLPC     H2R      HAL2     0.900000E-01   1.00800           0
      4740 MEMB     42       SLPC     H2S      HAL2     0.900000E-01   1.00800           0
      4741 MEMB     42       SLPC     C3       CTL2     0.800000E-01   12.0110           0
      4742 MEMB     42       SLPC     HX       HAL2     0.900000E-01   1.00800           0
      4743 MEMB     42       SLPC     HY       HAL2     0.900000E-01   1.00800           0
      4744 MEMB     42       SLPC     O31      OSL     -0.490000       15.9994           0
      4745 MEMB     42       SLPC     C31      CL       0.900000       12.0110           0
      4746 MEMB     42       SLPC     O32      OBL     -0.630000       15.9994           0
      4747 MEMB     42       SLPC     C32      CTL2    -0.220000       12.0110           0
      4748 MEMB     42       SLPC     H2X      HAL2     0.900000E-01   1.00800           0
      4749 MEMB     42       SLPC     H2Y      HAL2     0.900000E-01   1.00800           0
      4750 MEMB     42       SLPC     C23      CTL2    -0.180000       12.0110           0
      4751 MEMB     42       SLPC     H3R      HAL2     0.900000E-01   1.00800           0
      4752 MEMB     42       SLPC     H3S      HAL2     0.900000E-01   1.00800           0
      4753 MEMB     42       SLPC     C24      CTL2    -0.180000       12.0110           0
      4754 MEMB     42       SLPC     H4R      HAL2     0.900000E-01   1.00800           0
      4755 MEMB     42       SLPC     H4S      HAL2     0.900000E-01   1.00800           0
      4756 MEMB     42       SLPC     C25      CTL2    -0.180000       12.0110           0
      4757 MEMB     42       SLPC     H5R      HAL2     0.900000E-01   1.00800           0
      4758 MEMB     42       SLPC     H5S      HAL2     0.900000E-01   1.00800           0
      4759 MEMB     42       SLPC     C26      CTL2    -0.180000       12.0110           0
      4760 MEMB     42       SLPC     H6R      HAL2     0.900000E-01   1.00800           0
      4761 MEMB     42       SLPC     H6S      HAL2     0.900000E-01   1.00800           0
      4762 MEMB     42       SLPC     C27      CTL2    -0.180000       12.0110           0
      4763 MEMB     42       SLPC     H7R      HAL2     0.900000E-01   1.00800           0
      4764 MEMB     42       SLPC     H7S      HAL2     0.900000E-01   1.00800           0
      4765 MEMB     42       SLPC     C28      CTL2    -0.180000       12.0110           0
      4766 MEMB     42       SLPC     H8R      HAL2     0.900000E-01   1.00800           0
      4767 MEMB     42       SLPC     H8S      HAL2     0.900000E-01   1.00800           0
      4768 MEMB     42       SLPC     C29      CEL1    -0.150000       12.0110           0
      4769 MEMB     42       SLPC     H9R      HEL1     0.150000       1.00800           0
      4770 MEMB     42       SLPC     C210     CEL1    -0.150000       12.0110           0
      4771 MEMB     42       SLPC     H10R     HEL1     0.150000       1.00800           0
      4772 MEMB     42       SLPC     C211     CTL2    -0.180000       12.0110           0
      4773 MEMB     42       SLPC     H11R     HAL2     0.900000E-01   1.00800           0
      4774 MEMB     42       SLPC     H11S     HAL2     0.900000E-01   1.00800           0
      4775 MEMB     42       SLPC     C212     CEL1    -0.150000       12.0110           0
      4776 MEMB     42       SLPC     H12R     HEL1     0.150000       1.00800           0
      4777 MEMB     42       SLPC     C213     CEL1    -0.150000       12.0110           0
      4778 MEMB     42       SLPC     H13R     HEL1     0.150000       1.00800           0
      4779 MEMB     42       SLPC     C214     CTL2    -0.180000       12.0110           0
      4780 MEMB     42       SLPC     H14R     HAL2     0.900000E-01   1.00800           0
      4781 MEMB     42       SLPC     H14S     HAL2     0.900000E-01   1.00800           0
      4782 MEMB     42       SLPC     C215     CTL2    -0.180000       12.0110           0
      4783 MEMB     42       SLPC     H15R     HAL2     0.900000E-01   1.00800           0
      4784 MEMB     42       SLPC     H15S     HAL2     0.900000E-01   1.00800           0
      4785 MEMB     42       SLPC     C216     CTL2    -0.180000       12.0110           0
      4786 MEMB     42       SLPC     H16R     HAL2     0.900000E-01   1.00800           0
      4787 MEMB     42       SLPC     H16S     HAL2     0.900000E-01   1.00800           0
      4788 MEMB     42       SLPC     C217     CTL2    -0.180000       12.0110           0
      4789 MEMB     42       SLPC     H17R     HAL2     0.900000E-01   1.00800           0
      4790 MEMB     42       SLPC     H17S     HAL2     0.900000E-01   1.00800           0
      4791 MEMB     42       SLPC     C218     CTL3    -0.270000       12.0110           0
      4792 MEMB     42       SLPC     H18R     HAL3     0.900000E-01   1.00800           0
      4793 MEMB     42       SLPC     H18S     HAL3     0.900000E-01   1.00800           0
      4794 MEMB     42       SLPC     H18T     HAL3     0.900000E-01   1.00800           0
      4795 MEMB     42       SLPC     C33      CTL2    -0.180000       12.0110           0
      4796 MEMB     42       SLPC     H3X      HAL2     0.900000E-01   1.00800           0
      4797 MEMB     42       SLPC     H3Y      HAL2     0.900000E-01   1.00800           0
      4798 MEMB     42       SLPC     C34      CTL2    -0.180000       12.0110           0
      4799 MEMB     42       SLPC     H4X      HAL2     0.900000E-01   1.00800           0
      4800 MEMB     42       SLPC     H4Y      HAL2     0.900000E-01   1.00800           0
      4801 MEMB     42       SLPC     C35      CTL2    -0.180000       12.0110           0
      4802 MEMB     42       SLPC     H5X      HAL2     0.900000E-01   1.00800           0
      4803 MEMB     42       SLPC     H5Y      HAL2     0.900000E-01   1.00800           0
      4804 MEMB     42       SLPC     C36      CTL2    -0.180000       12.0110           0
      4805 MEMB     42       SLPC     H6X      HAL2     0.900000E-01   1.00800           0
      4806 MEMB     42       SLPC     H6Y      HAL2     0.900000E-01   1.00800           0
      4807 MEMB     42       SLPC     C37      CTL2    -0.180000       12.0110           0
      4808 MEMB     42       SLPC     H7X      HAL2     0.900000E-01   1.00800           0
      4809 MEMB     42       SLPC     H7Y      HAL2     0.900000E-01   1.00800           0
      4810 MEMB     42       SLPC     C38      CTL2    -0.180000       12.0110           0
      4811 MEMB     42       SLPC     H8X      HAL2     0.900000E-01   1.00800           0
      4812 MEMB     42       SLPC     H8Y      HAL2     0.900000E-01   1.00800           0
      4813 MEMB     42       SLPC     C39      CTL2    -0.180000       12.0110           0
      4814 MEMB     42       SLPC     H9X      HAL2     0.900000E-01   1.00800           0
      4815 MEMB     42       SLPC     H9Y      HAL2     0.900000E-01   1.00800           0
      4816 MEMB     42       SLPC     C310     CTL2    -0.180000       12.0110           0
      4817 MEMB     42       SLPC     H10X     HAL2     0.900000E-01   1.00800           0
      4818 MEMB     42       SLPC     H10Y     HAL2     0.900000E-01   1.00800           0
      4819 MEMB     42       SLPC     C311     CTL2    -0.180000       12.0110           0
      4820 MEMB     42       SLPC     H11X     HAL2     0.900000E-01   1.00800           0
      4821 MEMB     42       SLPC     H11Y     HAL2     0.900000E-01   1.00800           0
      4822 MEMB     42       SLPC     C312     CTL2    -0.180000       12.0110           0
      4823 MEMB     42       SLPC     H12X     HAL2     0.900000E-01   1.00800           0
      4824 MEMB     42       SLPC     H12Y     HAL2     0.900000E-01   1.00800           0
      4825 MEMB     42       SLPC     C313     CTL2    -0.180000       12.0110           0
      4826 MEMB     42       SLPC     H13X     HAL2     0.900000E-01   1.00800           0
      4827 MEMB     42       SLPC     H13Y     HAL2     0.900000E-01   1.00800           0
      4828 MEMB     42       SLPC     C314     CTL2    -0.180000       12.0110           0
      4829 MEMB     42       SLPC     H14X     HAL2     0.900000E-01   1.00800           0
      4830 MEMB     42       SLPC     H14Y     HAL2     0.900000E-01   1.00800           0
      4831 MEMB     42       SLPC     C315     CTL2    -0.180000       12.0110           0
      4832 MEMB     42       SLPC     H15X     HAL2     0.900000E-01   1.00800           0
      4833 MEMB     42       SLPC     H15Y     HAL2     0.900000E-01   1.00800           0
      4834 MEMB     42       SLPC     C316     CTL2    -0.180000       12.0110           0
      4835 MEMB     42       SLPC     H16X     HAL2     0.900000E-01   1.00800           0
      4836 MEMB     42       SLPC     H16Y     HAL2     0.900000E-01   1.00800           0
      4837 MEMB     42       SLPC     C317     CTL2    -0.180000       12.0110           0
      4838 MEMB     42       SLPC     H17X     HAL2     0.900000E-01   1.00800           0
      4839 MEMB     42       SLPC     H17Y     HAL2     0.900000E-01   1.00800           0
      4840 MEMB     42       SLPC     C318     CTL3    -0.270000       12.0110           0
      4841 MEMB     42       SLPC     H18X     HAL3     0.900000E-01   1.00800           0
      4842 MEMB     42       SLPC     H18Y     HAL3     0.900000E-01   1.00800           0
      4843 MEMB     42       SLPC     H18Z     HAL3     0.900000E-01   1.00800           0
      4844 MEMB     43       SOPE     N        NH3L    -0.300000       14.0070           0
      4845 MEMB     43       SOPE     HN1      HCL      0.330000       1.00800           0
      4846 MEMB     43       SOPE     HN2      HCL      0.330000       1.00800           0
      4847 MEMB     43       SOPE     HN3      HCL      0.330000       1.00800           0
      4848 MEMB     43       SOPE     C12      CTL2     0.130000       12.0110           0
      4849 MEMB     43       SOPE     H12A     HAL2     0.900000E-01   1.00800           0
      4850 MEMB     43       SOPE     H12B     HAL2     0.900000E-01   1.00800           0
      4851 MEMB     43       SOPE     C11      CTL2    -0.800000E-01   12.0110           0
      4852 MEMB     43       SOPE     H11A     HAL2     0.900000E-01   1.00800           0
      4853 MEMB     43       SOPE     H11B     HAL2     0.900000E-01   1.00800           0
      4854 MEMB     43       SOPE     P        PL        1.50000       30.9740           0
      4855 MEMB     43       SOPE     O13      O2L     -0.780000       15.9994           0
      4856 MEMB     43       SOPE     O14      O2L     -0.780000       15.9994           0
      4857 MEMB     43       SOPE     O12      OSLP    -0.570000       15.9994           0
      4858 MEMB     43       SOPE     O11      OSLP    -0.570000       15.9994           0
      4859 MEMB     43       SOPE     C1       CTL2    -0.800000E-01   12.0110           0
      4860 MEMB     43       SOPE     HA       HAL2     0.900000E-01   1.00800           0
      4861 MEMB     43       SOPE     HB       HAL2     0.900000E-01   1.00800           0
      4862 MEMB     43       SOPE     C2       CTL1     0.170000       12.0110           0
      4863 MEMB     43       SOPE     HS       HAL1     0.900000E-01   1.00800           0
      4864 MEMB     43       SOPE     O21      OSL     -0.490000       15.9994           0
      4865 MEMB     43       SOPE     C21      CL       0.900000       12.0110           0
      4866 MEMB     43       SOPE     O22      OBL     -0.630000       15.9994           0
      4867 MEMB     43       SOPE     C22      CTL2    -0.220000       12.0110           0
      4868 MEMB     43       SOPE     H2R      HAL2     0.900000E-01   1.00800           0
      4869 MEMB     43       SOPE     H2S      HAL2     0.900000E-01   1.00800           0
      4870 MEMB     43       SOPE     C3       CTL2     0.800000E-01   12.0110           0
      4871 MEMB     43       SOPE     HX       HAL2     0.900000E-01   1.00800           0
      4872 MEMB     43       SOPE     HY       HAL2     0.900000E-01   1.00800           0
      4873 MEMB     43       SOPE     O31      OSL     -0.490000       15.9994           0
      4874 MEMB     43       SOPE     C31      CL       0.900000       12.0110           0
      4875 MEMB     43       SOPE     O32      OBL     -0.630000       15.9994           0
      4876 MEMB     43       SOPE     C32      CTL2    -0.220000       12.0110           0
      4877 MEMB     43       SOPE     H2X      HAL2     0.900000E-01   1.00800           0
      4878 MEMB     43       SOPE     H2Y      HAL2     0.900000E-01   1.00800           0
      4879 MEMB     43       SOPE     C23      CTL2    -0.180000       12.0110           0
      4880 MEMB     43       SOPE     H3R      HAL2     0.900000E-01   1.00800           0
      4881 MEMB     43       SOPE     H3S      HAL2     0.900000E-01   1.00800           0
      4882 MEMB     43       SOPE     C24      CTL2    -0.180000       12.0110           0
      4883 MEMB     43       SOPE     H4R      HAL2     0.900000E-01   1.00800           0
      4884 MEMB     43       SOPE     H4S      HAL2     0.900000E-01   1.00800           0
      4885 MEMB     43       SOPE     C25      CTL2    -0.180000       12.0110           0
      4886 MEMB     43       SOPE     H5R      HAL2     0.900000E-01   1.00800           0
      4887 MEMB     43       SOPE     H5S      HAL2     0.900000E-01   1.00800           0
      4888 MEMB     43       SOPE     C26      CTL2    -0.180000       12.0110           0
      4889 MEMB     43       SOPE     H6R      HAL2     0.900000E-01   1.00800           0
      4890 MEMB     43       SOPE     H6S      HAL2     0.900000E-01   1.00800           0
      4891 MEMB     43       SOPE     C27      CTL2    -0.180000       12.0110           0
      4892 MEMB     43       SOPE     H7R      HAL2     0.900000E-01   1.00800           0
      4893 MEMB     43       SOPE     H7S      HAL2     0.900000E-01   1.00800           0
      4894 MEMB     43       SOPE     C28      CTL2    -0.180000       12.0110           0
      4895 MEMB     43       SOPE     H8R      HAL2     0.900000E-01   1.00800           0
      4896 MEMB     43       SOPE     H8S      HAL2     0.900000E-01   1.00800           0
      4897 MEMB     43       SOPE     C29      CEL1    -0.150000       12.0110           0
      4898 MEMB     43       SOPE     H91      HEL1     0.150000       1.00800           0
      4899 MEMB     43       SOPE     C210     CEL1    -0.150000       12.0110           0
      4900 MEMB     43       SOPE     H101     HEL1     0.150000       1.00800           0
      4901 MEMB     43       SOPE     C211     CTL2    -0.180000       12.0110           0
      4902 MEMB     43       SOPE     H11R     HAL2     0.900000E-01   1.00800           0
      4903 MEMB     43       SOPE     H11S     HAL2     0.900000E-01   1.00800           0
      4904 MEMB     43       SOPE     C212     CTL2    -0.180000       12.0110           0
      4905 MEMB     43       SOPE     H12R     HAL2     0.900000E-01   1.00800           0
      4906 MEMB     43       SOPE     H12S     HAL2     0.900000E-01   1.00800           0
      4907 MEMB     43       SOPE     C213     CTL2    -0.180000       12.0110           0
      4908 MEMB     43       SOPE     H13R     HAL2     0.900000E-01   1.00800           0
      4909 MEMB     43       SOPE     H13S     HAL2     0.900000E-01   1.00800           0
      4910 MEMB     43       SOPE     C214     CTL2    -0.180000       12.0110           0
      4911 MEMB     43       SOPE     H14R     HAL2     0.900000E-01   1.00800           0
      4912 MEMB     43       SOPE     H14S     HAL2     0.900000E-01   1.00800           0
      4913 MEMB     43       SOPE     C215     CTL2    -0.180000       12.0110           0
      4914 MEMB     43       SOPE     H15R     HAL2     0.900000E-01   1.00800           0
      4915 MEMB     43       SOPE     H15S     HAL2     0.900000E-01   1.00800           0
      4916 MEMB     43       SOPE     C216     CTL2    -0.180000       12.0110           0
      4917 MEMB     43       SOPE     H16R     HAL2     0.900000E-01   1.00800           0
      4918 MEMB     43       SOPE     H16S     HAL2     0.900000E-01   1.00800           0
      4919 MEMB     43       SOPE     C217     CTL2    -0.180000       12.0110           0
      4920 MEMB     43       SOPE     H17R     HAL2     0.900000E-01   1.00800           0
      4921 MEMB     43       SOPE     H17S     HAL2     0.900000E-01   1.00800           0
      4922 MEMB     43       SOPE     C218     CTL3    -0.270000       12.0110           0
      4923 MEMB     43       SOPE     H18R     HAL3     0.900000E-01   1.00800           0
      4924 MEMB     43       SOPE     H18S     HAL3     0.900000E-01   1.00800           0
      4925 MEMB     43       SOPE     H18T     HAL3     0.900000E-01   1.00800           0
      4926 MEMB     43       SOPE     C33      CTL2    -0.180000       12.0110           0
      4927 MEMB     43       SOPE     H3X      HAL2     0.900000E-01   1.00800           0
      4928 MEMB     43       SOPE     H3Y      HAL2     0.900000E-01   1.00800           0
      4929 MEMB     43       SOPE     C34      CTL2    -0.180000       12.0110           0
      4930 MEMB     43       SOPE     H4X      HAL2     0.900000E-01   1.00800           0
      4931 MEMB     43       SOPE     H4Y      HAL2     0.900000E-01   1.00800           0
      4932 MEMB     43       SOPE     C35      CTL2    -0.180000       12.0110           0
      4933 MEMB     43       SOPE     H5X      HAL2     0.900000E-01   1.00800           0
      4934 MEMB     43       SOPE     H5Y      HAL2     0.900000E-01   1.00800           0
      4935 MEMB     43       SOPE     C36      CTL2    -0.180000       12.0110           0
      4936 MEMB     43       SOPE     H6X      HAL2     0.900000E-01   1.00800           0
      4937 MEMB     43       SOPE     H6Y      HAL2     0.900000E-01   1.00800           0
      4938 MEMB     43       SOPE     C37      CTL2    -0.180000       12.0110           0
      4939 MEMB     43       SOPE     H7X      HAL2     0.900000E-01   1.00800           0
      4940 MEMB     43       SOPE     H7Y      HAL2     0.900000E-01   1.00800           0
      4941 MEMB     43       SOPE     C38      CTL2    -0.180000       12.0110           0
      4942 MEMB     43       SOPE     H8X      HAL2     0.900000E-01   1.00800           0
      4943 MEMB     43       SOPE     H8Y      HAL2     0.900000E-01   1.00800           0
      4944 MEMB     43       SOPE     C39      CTL2    -0.180000       12.0110           0
      4945 MEMB     43       SOPE     H9X      HAL2     0.900000E-01   1.00800           0
      4946 MEMB     43       SOPE     H9Y      HAL2     0.900000E-01   1.00800           0
      4947 MEMB     43       SOPE     C310     CTL2    -0.180000       12.0110           0
      4948 MEMB     43       SOPE     H10X     HAL2     0.900000E-01   1.00800           0
      4949 MEMB     43       SOPE     H10Y     HAL2     0.900000E-01   1.00800           0
      4950 MEMB     43       SOPE     C311     CTL2    -0.180000       12.0110           0
      4951 MEMB     43       SOPE     H11X     HAL2     0.900000E-01   1.00800           0
      4952 MEMB     43       SOPE     H11Y     HAL2     0.900000E-01   1.00800           0
      4953 MEMB     43       SOPE     C312     CTL2    -0.180000       12.0110           0
      4954 MEMB     43       SOPE     H12X     HAL2     0.900000E-01   1.00800           0
      4955 MEMB     43       SOPE     H12Y     HAL2     0.900000E-01   1.00800           0
      4956 MEMB     43       SOPE     C313     CTL2    -0.180000       12.0110           0
      4957 MEMB     43       SOPE     H13X     HAL2     0.900000E-01   1.00800           0
      4958 MEMB     43       SOPE     H13Y     HAL2     0.900000E-01   1.00800           0
      4959 MEMB     43       SOPE     C314     CTL2    -0.180000       12.0110           0
      4960 MEMB     43       SOPE     H14X     HAL2     0.900000E-01   1.00800           0
      4961 MEMB     43       SOPE     H14Y     HAL2     0.900000E-01   1.00800           0
      4962 MEMB     43       SOPE     C315     CTL2    -0.180000       12.0110           0
      4963 MEMB     43       SOPE     H15X     HAL2     0.900000E-01   1.00800           0
      4964 MEMB     43       SOPE     H15Y     HAL2     0.900000E-01   1.00800           0
      4965 MEMB     43       SOPE     C316     CTL2    -0.180000       12.0110           0
      4966 MEMB     43       SOPE     H16X     HAL2     0.900000E-01   1.00800           0
      4967 MEMB     43       SOPE     H16Y     HAL2     0.900000E-01   1.00800           0
      4968 MEMB     43       SOPE     C317     CTL2    -0.180000       12.0110           0
      4969 MEMB     43       SOPE     H17X     HAL2     0.900000E-01   1.00800           0
      4970 MEMB     43       SOPE     H17Y     HAL2     0.900000E-01   1.00800           0
      4971 MEMB     43       SOPE     C318     CTL3    -0.270000       12.0110           0
      4972 MEMB     43       SOPE     H18X     HAL3     0.900000E-01   1.00800           0
      4973 MEMB     43       SOPE     H18Y     HAL3     0.900000E-01   1.00800           0
      4974 MEMB     43       SOPE     H18Z     HAL3     0.900000E-01   1.00800           0
      4975 MEMB     44       POPC     N        NTL     -0.600000       14.0070           0
      4976 MEMB     44       POPC     C12      CTL2    -0.100000       12.0110           0
      4977 MEMB     44       POPC     H12A     HL       0.250000       1.00800           0
      4978 MEMB     44       POPC     H12B     HL       0.250000       1.00800           0
      4979 MEMB     44       POPC     C13      CTL5    -0.350000       12.0110           0
      4980 MEMB     44       POPC     H13A     HL       0.250000       1.00800           0
      4981 MEMB     44       POPC     H13B     HL       0.250000       1.00800           0
      4982 MEMB     44       POPC     H13C     HL       0.250000       1.00800           0
      4983 MEMB     44       POPC     C14      CTL5    -0.350000       12.0110           0
      4984 MEMB     44       POPC     H14A     HL       0.250000       1.00800           0
      4985 MEMB     44       POPC     H14B     HL       0.250000       1.00800           0
      4986 MEMB     44       POPC     H14C     HL       0.250000       1.00800           0
      4987 MEMB     44       POPC     C15      CTL5    -0.350000       12.0110           0
      4988 MEMB     44       POPC     H15A     HL       0.250000       1.00800           0
      4989 MEMB     44       POPC     H15B     HL       0.250000       1.00800           0
      4990 MEMB     44       POPC     H15C     HL       0.250000       1.00800           0
      4991 MEMB     44       POPC     C11      CTL2    -0.800000E-01   12.0110           0
      4992 MEMB     44       POPC     H11A     HAL2     0.900000E-01   1.00800           0
      4993 MEMB     44       POPC     H11B     HAL2     0.900000E-01   1.00800           0
      4994 MEMB     44       POPC     P        PL        1.50000       30.9740           0
      4995 MEMB     44       POPC     O13      O2L     -0.780000       15.9994           0
      4996 MEMB     44       POPC     O14      O2L     -0.780000       15.9994           0
      4997 MEMB     44       POPC     O12      OSLP    -0.570000       15.9994           0
      4998 MEMB     44       POPC     O11      OSLP    -0.570000       15.9994           0
      4999 MEMB     44       POPC     C1       CTL2    -0.800000E-01   12.0110           0
      5000 MEMB     44       POPC     HA       HAL2     0.900000E-01   1.00800           0
      5001 MEMB     44       POPC     HB       HAL2     0.900000E-01   1.00800           0
      5002 MEMB     44       POPC     C2       CTL1     0.170000       12.0110           0
      5003 MEMB     44       POPC     HS       HAL1     0.900000E-01   1.00800           0
      5004 MEMB     44       POPC     O21      OSL     -0.490000       15.9994           0
      5005 MEMB     44       POPC     C21      CL       0.900000       12.0110           0
      5006 MEMB     44       POPC     O22      OBL     -0.630000       15.9994           0
      5007 MEMB     44       POPC     C22      CTL2    -0.220000       12.0110           0
      5008 MEMB     44       POPC     H2R      HAL2     0.900000E-01   1.00800           0
      5009 MEMB     44       POPC     H2S      HAL2     0.900000E-01   1.00800           0
      5010 MEMB     44       POPC     C3       CTL2     0.800000E-01   12.0110           0
      5011 MEMB     44       POPC     HX       HAL2     0.900000E-01   1.00800           0
      5012 MEMB     44       POPC     HY       HAL2     0.900000E-01   1.00800           0
      5013 MEMB     44       POPC     O31      OSL     -0.490000       15.9994           0
      5014 MEMB     44       POPC     C31      CL       0.900000       12.0110           0
      5015 MEMB     44       POPC     O32      OBL     -0.630000       15.9994           0
      5016 MEMB     44       POPC     C32      CTL2    -0.220000       12.0110           0
      5017 MEMB     44       POPC     H2X      HAL2     0.900000E-01   1.00800           0
      5018 MEMB     44       POPC     H2Y      HAL2     0.900000E-01   1.00800           0
      5019 MEMB     44       POPC     C23      CTL2    -0.180000       12.0110           0
      5020 MEMB     44       POPC     H3R      HAL2     0.900000E-01   1.00800           0
      5021 MEMB     44       POPC     H3S      HAL2     0.900000E-01   1.00800           0
      5022 MEMB     44       POPC     C24      CTL2    -0.180000       12.0110           0
      5023 MEMB     44       POPC     H4R      HAL2     0.900000E-01   1.00800           0
      5024 MEMB     44       POPC     H4S      HAL2     0.900000E-01   1.00800           0
      5025 MEMB     44       POPC     C25      CTL2    -0.180000       12.0110           0
      5026 MEMB     44       POPC     H5R      HAL2     0.900000E-01   1.00800           0
      5027 MEMB     44       POPC     H5S      HAL2     0.900000E-01   1.00800           0
      5028 MEMB     44       POPC     C26      CTL2    -0.180000       12.0110           0
      5029 MEMB     44       POPC     H6R      HAL2     0.900000E-01   1.00800           0
      5030 MEMB     44       POPC     H6S      HAL2     0.900000E-01   1.00800           0
      5031 MEMB     44       POPC     C27      CTL2    -0.180000       12.0110           0
      5032 MEMB     44       POPC     H7R      HAL2     0.900000E-01   1.00800           0
      5033 MEMB     44       POPC     H7S      HAL2     0.900000E-01   1.00800           0
      5034 MEMB     44       POPC     C28      CTL2    -0.180000       12.0110           0
      5035 MEMB     44       POPC     H8R      HAL2     0.900000E-01   1.00800           0
      5036 MEMB     44       POPC     H8S      HAL2     0.900000E-01   1.00800           0
      5037 MEMB     44       POPC     C29      CEL1    -0.150000       12.0110           0
      5038 MEMB     44       POPC     H91      HEL1     0.150000       1.00800           0
      5039 MEMB     44       POPC     C210     CEL1    -0.150000       12.0110           0
      5040 MEMB     44       POPC     H101     HEL1     0.150000       1.00800           0
      5041 MEMB     44       POPC     C211     CTL2    -0.180000       12.0110           0
      5042 MEMB     44       POPC     H11R     HAL2     0.900000E-01   1.00800           0
      5043 MEMB     44       POPC     H11S     HAL2     0.900000E-01   1.00800           0
      5044 MEMB     44       POPC     C212     CTL2    -0.180000       12.0110           0
      5045 MEMB     44       POPC     H12R     HAL2     0.900000E-01   1.00800           0
      5046 MEMB     44       POPC     H12S     HAL2     0.900000E-01   1.00800           0
      5047 MEMB     44       POPC     C213     CTL2    -0.180000       12.0110           0
      5048 MEMB     44       POPC     H13R     HAL2     0.900000E-01   1.00800           0
      5049 MEMB     44       POPC     H13S     HAL2     0.900000E-01   1.00800           0
      5050 MEMB     44       POPC     C214     CTL2    -0.180000       12.0110           0
      5051 MEMB     44       POPC     H14R     HAL2     0.900000E-01   1.00800           0
      5052 MEMB     44       POPC     H14S     HAL2     0.900000E-01   1.00800           0
      5053 MEMB     44       POPC     C215     CTL2    -0.180000       12.0110           0
      5054 MEMB     44       POPC     H15R     HAL2     0.900000E-01   1.00800           0
      5055 MEMB     44       POPC     H15S     HAL2     0.900000E-01   1.00800           0
      5056 MEMB     44       POPC     C216     CTL2    -0.180000       12.0110           0
      5057 MEMB     44       POPC     H16R     HAL2     0.900000E-01   1.00800           0
      5058 MEMB     44       POPC     H16S     HAL2     0.900000E-01   1.00800           0
      5059 MEMB     44       POPC     C217     CTL2    -0.180000       12.0110           0
      5060 MEMB     44       POPC     H17R     HAL2     0.900000E-01   1.00800           0
      5061 MEMB     44       POPC     H17S     HAL2     0.900000E-01   1.00800           0
      5062 MEMB     44       POPC     C218     CTL3    -0.270000       12.0110           0
      5063 MEMB     44       POPC     H18R     HAL3     0.900000E-01   1.00800           0
      5064 MEMB     44       POPC     H18S     HAL3     0.900000E-01   1.00800           0
      5065 MEMB     44       POPC     H18T     HAL3     0.900000E-01   1.00800           0
      5066 MEMB     44       POPC     C33      CTL2    -0.180000       12.0110           0
      5067 MEMB     44       POPC     H3X      HAL2     0.900000E-01   1.00800           0
      5068 MEMB     44       POPC     H3Y      HAL2     0.900000E-01   1.00800           0
      5069 MEMB     44       POPC     C34      CTL2    -0.180000       12.0110           0
      5070 MEMB     44       POPC     H4X      HAL2     0.900000E-01   1.00800           0
      5071 MEMB     44       POPC     H4Y      HAL2     0.900000E-01   1.00800           0
      5072 MEMB     44       POPC     C35      CTL2    -0.180000       12.0110           0
      5073 MEMB     44       POPC     H5X      HAL2     0.900000E-01   1.00800           0
      5074 MEMB     44       POPC     H5Y      HAL2     0.900000E-01   1.00800           0
      5075 MEMB     44       POPC     C36      CTL2    -0.180000       12.0110           0
      5076 MEMB     44       POPC     H6X      HAL2     0.900000E-01   1.00800           0
      5077 MEMB     44       POPC     H6Y      HAL2     0.900000E-01   1.00800           0
      5078 MEMB     44       POPC     C37      CTL2    -0.180000       12.0110           0
      5079 MEMB     44       POPC     H7X      HAL2     0.900000E-01   1.00800           0
      5080 MEMB     44       POPC     H7Y      HAL2     0.900000E-01   1.00800           0
      5081 MEMB     44       POPC     C38      CTL2    -0.180000       12.0110           0
      5082 MEMB     44       POPC     H8X      HAL2     0.900000E-01   1.00800           0
      5083 MEMB     44       POPC     H8Y      HAL2     0.900000E-01   1.00800           0
      5084 MEMB     44       POPC     C39      CTL2    -0.180000       12.0110           0
      5085 MEMB     44       POPC     H9X      HAL2     0.900000E-01   1.00800           0
      5086 MEMB     44       POPC     H9Y      HAL2     0.900000E-01   1.00800           0
      5087 MEMB     44       POPC     C310     CTL2    -0.180000       12.0110           0
      5088 MEMB     44       POPC     H10X     HAL2     0.900000E-01   1.00800           0
      5089 MEMB     44       POPC     H10Y     HAL2     0.900000E-01   1.00800           0
      5090 MEMB     44       POPC     C311     CTL2    -0.180000       12.0110           0
      5091 MEMB     44       POPC     H11X     HAL2     0.900000E-01   1.00800           0
      5092 MEMB     44       POPC     H11Y     HAL2     0.900000E-01   1.00800           0
      5093 MEMB     44       POPC     C312     CTL2    -0.180000       12.0110           0
      5094 MEMB     44       POPC     H12X     HAL2     0.900000E-01   1.00800           0
      5095 MEMB     44       POPC     H12Y     HAL2     0.900000E-01   1.00800           0
      5096 MEMB     44       POPC     C313     CTL2    -0.180000       12.0110           0
      5097 MEMB     44       POPC     H13X     HAL2     0.900000E-01   1.00800           0
      5098 MEMB     44       POPC     H13Y     HAL2     0.900000E-01   1.00800           0
      5099 MEMB     44       POPC     C314     CTL2    -0.180000       12.0110           0
      5100 MEMB     44       POPC     H14X     HAL2     0.900000E-01   1.00800           0
      5101 MEMB     44       POPC     H14Y     HAL2     0.900000E-01   1.00800           0
      5102 MEMB     44       POPC     C315     CTL2    -0.180000       12.0110           0
      5103 MEMB     44       POPC     H15X     HAL2     0.900000E-01   1.00800           0
      5104 MEMB     44       POPC     H15Y     HAL2     0.900000E-01   1.00800           0
      5105 MEMB     44       POPC     C316     CTL3    -0.270000       12.0110           0
      5106 MEMB     44       POPC     H16X     HAL3     0.900000E-01   1.00800           0
      5107 MEMB     44       POPC     H16Y     HAL3     0.900000E-01   1.00800           0
      5108 MEMB     44       POPC     H16Z     HAL3     0.900000E-01   1.00800           0
      5109 MEMB     45       OSM      N        NTL     -0.600000       14.0070           0
      5110 MEMB     45       OSM      C15      CTL5    -0.350000       12.0110           0
      5111 MEMB     45       OSM      H15A     HL       0.250000       1.00800           0
      5112 MEMB     45       OSM      H15B     HL       0.250000       1.00800           0
      5113 MEMB     45       OSM      H15C     HL       0.250000       1.00800           0
      5114 MEMB     45       OSM      C14      CTL5    -0.350000       12.0110           0
      5115 MEMB     45       OSM      H14A     HL       0.250000       1.00800           0
      5116 MEMB     45       OSM      H14B     HL       0.250000       1.00800           0
      5117 MEMB     45       OSM      H14C     HL       0.250000       1.00800           0
      5118 MEMB     45       OSM      C13      CTL5    -0.350000       12.0110           0
      5119 MEMB     45       OSM      H13A     HL       0.250000       1.00800           0
      5120 MEMB     45       OSM      H13B     HL       0.250000       1.00800           0
      5121 MEMB     45       OSM      H13C     HL       0.250000       1.00800           0
      5122 MEMB     45       OSM      C12      CTL2    -0.100000       12.0110           0
      5123 MEMB     45       OSM      H12A     HL       0.250000       1.00800           0
      5124 MEMB     45       OSM      H12B     HL       0.250000       1.00800           0
      5125 MEMB     45       OSM      C11      CTL2    -0.800000E-01   12.0110           0
      5126 MEMB     45       OSM      H11A     HAL2     0.900000E-01   1.00800           0
      5127 MEMB     45       OSM      H11B     HAL2     0.900000E-01   1.00800           0
      5128 MEMB     45       OSM      P        PL        1.50000       30.9740           0
      5129 MEMB     45       OSM      O13      O2L     -0.780000       15.9994           0
      5130 MEMB     45       OSM      O14      O2L     -0.780000       15.9994           0
      5131 MEMB     45       OSM      O11      OSLP    -0.570000       15.9994           0
      5132 MEMB     45       OSM      O12      OSLP    -0.570000       15.9994           0
      5133 MEMB     45       OSM      C1S      CTL2    -0.800000E-01   12.0110           0
      5134 MEMB     45       OSM      H1S      HAL2     0.900000E-01   1.00800           0
      5135 MEMB     45       OSM      H1T      HAL2     0.900000E-01   1.00800           0
      5136 MEMB     45       OSM      NF       NHL     -0.700000       14.0070           0
      5137 MEMB     45       OSM      HNF      H        0.350000       1.00800           0
      5138 MEMB     45       OSM      C2S      CTL1     0.300000       12.0110           0
      5139 MEMB     45       OSM      H2S      HAL1     0.500000E-01   1.00800           0
      5140 MEMB     45       OSM      C3S      CTO1     0.500000       12.0110           0
      5141 MEMB     45       OSM      H3S      HAL1    -0.110000       1.00800           0
      5142 MEMB     45       OSM      O3       OHL     -0.690000       15.9994           0
      5143 MEMB     45       OSM      HO3      HOL      0.300000       1.00800           0
      5144 MEMB     45       OSM      C4S      CEL3    -0.150000       12.0110           0
      5145 MEMB     45       OSM      H4S      HEL1     0.150000       1.00800           0
      5146 MEMB     45       OSM      C5S      CEL3    -0.150000       12.0110           0
      5147 MEMB     45       OSM      H5S      HEL1     0.150000       1.00800           0
      5148 MEMB     45       OSM      C6S      CTL2    -0.180000       12.0110           0
      5149 MEMB     45       OSM      H6S      HAL2     0.900000E-01   1.00800           0
      5150 MEMB     45       OSM      H6T      HAL2     0.900000E-01   1.00800           0
      5151 MEMB     45       OSM      C7S      CTL2    -0.180000       12.0110           0
      5152 MEMB     45       OSM      H7S      HAL2     0.900000E-01   1.00800           0
      5153 MEMB     45       OSM      H7T      HAL2     0.900000E-01   1.00800           0
      5154 MEMB     45       OSM      C8S      CTL2    -0.180000       12.0110           0
      5155 MEMB     45       OSM      H8S      HAL2     0.900000E-01   1.00800           0
      5156 MEMB     45       OSM      H8T      HAL2     0.900000E-01   1.00800           0
      5157 MEMB     45       OSM      C9S      CTL2    -0.180000       12.0110           0
      5158 MEMB     45       OSM      H9S      HAL2     0.900000E-01   1.00800           0
      5159 MEMB     45       OSM      H9T      HAL2     0.900000E-01   1.00800           0
      5160 MEMB     45       OSM      C10S     CTL2    -0.180000       12.0110           0
      5161 MEMB     45       OSM      H10S     HAL2     0.900000E-01   1.00800           0
      5162 MEMB     45       OSM      H10T     HAL2     0.900000E-01   1.00800           0
      5163 MEMB     45       OSM      C11S     CTL2    -0.180000       12.0110           0
      5164 MEMB     45       OSM      H11S     HAL2     0.900000E-01   1.00800           0
      5165 MEMB     45       OSM      H11T     HAL2     0.900000E-01   1.00800           0
      5166 MEMB     45       OSM      C12S     CTL2    -0.180000       12.0110           0
      5167 MEMB     45       OSM      H12S     HAL2     0.900000E-01   1.00800           0
      5168 MEMB     45       OSM      H12T     HAL2     0.900000E-01   1.00800           0
      5169 MEMB     45       OSM      C13S     CTL2    -0.180000       12.0110           0
      5170 MEMB     45       OSM      H13S     HAL2     0.900000E-01   1.00800           0
      5171 MEMB     45       OSM      H13T     HAL2     0.900000E-01   1.00800           0
      5172 MEMB     45       OSM      C14S     CTL2    -0.180000       12.0110           0
      5173 MEMB     45       OSM      H14S     HAL2     0.900000E-01   1.00800           0
      5174 MEMB     45       OSM      H14T     HAL2     0.900000E-01   1.00800           0
      5175 MEMB     45       OSM      C15S     CTL2    -0.180000       12.0110           0
      5176 MEMB     45       OSM      H15S     HAL2     0.900000E-01   1.00800           0
      5177 MEMB     45       OSM      H15T     HAL2     0.900000E-01   1.00800           0
      5178 MEMB     45       OSM      C16S     CTL2    -0.180000       12.0110           0
      5179 MEMB     45       OSM      H16S     HAL2     0.900000E-01   1.00800           0
      5180 MEMB     45       OSM      H16T     HAL2     0.900000E-01   1.00800           0
      5181 MEMB     45       OSM      C17S     CTL2    -0.180000       12.0110           0
      5182 MEMB     45       OSM      H17S     HAL2     0.900000E-01   1.00800           0
      5183 MEMB     45       OSM      H17T     HAL2     0.900000E-01   1.00800           0
      5184 MEMB     45       OSM      C18S     CTL3    -0.270000       12.0110           0
      5185 MEMB     45       OSM      H18S     HAL3     0.900000E-01   1.00800           0
      5186 MEMB     45       OSM      H18T     HAL3     0.900000E-01   1.00800           0
      5187 MEMB     45       OSM      H18U     HAL3     0.900000E-01   1.00800           0
      5188 MEMB     45       OSM      C1F      C        0.550000       12.0110           0
      5189 MEMB     45       OSM      OF       O       -0.600000       15.9994           0
      5190 MEMB     45       OSM      C2F      CTL2    -0.700000E-01   12.0110           0
      5191 MEMB     45       OSM      H2F      HAL2     0.600000E-01   1.00800           0
      5192 MEMB     45       OSM      H2G      HAL2     0.600000E-01   1.00800           0
      5193 MEMB     45       OSM      C3F      CTL2    -0.180000       12.0110           0
      5194 MEMB     45       OSM      H3F      HAL2     0.900000E-01   1.00800           0
      5195 MEMB     45       OSM      H3G      HAL2     0.900000E-01   1.00800           0
      5196 MEMB     45       OSM      C4F      CTL2    -0.180000       12.0110           0
      5197 MEMB     45       OSM      H4F      HAL2     0.900000E-01   1.00800           0
      5198 MEMB     45       OSM      H4G      HAL2     0.900000E-01   1.00800           0
      5199 MEMB     45       OSM      C5F      CTL2    -0.180000       12.0110           0
      5200 MEMB     45       OSM      H5F      HAL2     0.900000E-01   1.00800           0
      5201 MEMB     45       OSM      H5G      HAL2     0.900000E-01   1.00800           0
      5202 MEMB     45       OSM      C6F      CTL2    -0.180000       12.0110           0
      5203 MEMB     45       OSM      H6F      HAL2     0.900000E-01   1.00800           0
      5204 MEMB     45       OSM      H6G      HAL2     0.900000E-01   1.00800           0
      5205 MEMB     45       OSM      C7F      CTL2    -0.180000       12.0110           0
      5206 MEMB     45       OSM      H7F      HAL2     0.900000E-01   1.00800           0
      5207 MEMB     45       OSM      H7G      HAL2     0.900000E-01   1.00800           0
      5208 MEMB     45       OSM      C8F      CTL2    -0.180000       12.0110           0
      5209 MEMB     45       OSM      H8F      HAL2     0.900000E-01   1.00800           0
      5210 MEMB     45       OSM      H8G      HAL2     0.900000E-01   1.00800           0
      5211 MEMB     45       OSM      C9F      CEL1    -0.150000       12.0110           0
      5212 MEMB     45       OSM      H9F      HEL1     0.150000       1.00800           0
      5213 MEMB     45       OSM      C10F     CEL1    -0.150000       12.0110           0
      5214 MEMB     45       OSM      H10F     HEL1     0.150000       1.00800           0
      5215 MEMB     45       OSM      C11F     CTL2    -0.180000       12.0110           0
      5216 MEMB     45       OSM      H11F     HAL2     0.900000E-01   1.00800           0
      5217 MEMB     45       OSM      H11G     HAL2     0.900000E-01   1.00800           0
      5218 MEMB     45       OSM      C12F     CTL2    -0.180000       12.0110           0
      5219 MEMB     45       OSM      H12F     HAL2     0.900000E-01   1.00800           0
      5220 MEMB     45       OSM      H12G     HAL2     0.900000E-01   1.00800           0
      5221 MEMB     45       OSM      C13F     CTL2    -0.180000       12.0110           0
      5222 MEMB     45       OSM      H13F     HAL2     0.900000E-01   1.00800           0
      5223 MEMB     45       OSM      H13G     HAL2     0.900000E-01   1.00800           0
      5224 MEMB     45       OSM      C14F     CTL2    -0.180000       12.0110           0
      5225 MEMB     45       OSM      H14F     HAL2     0.900000E-01   1.00800           0
      5226 MEMB     45       OSM      H14G     HAL2     0.900000E-01   1.00800           0
      5227 MEMB     45       OSM      C15F     CTL2    -0.180000       12.0110           0
      5228 MEMB     45       OSM      H15F     HAL2     0.900000E-01   1.00800           0
      5229 MEMB     45       OSM      H15G     HAL2     0.900000E-01   1.00800           0
      5230 MEMB     45       OSM      C16F     CTL2    -0.180000       12.0110           0
      5231 MEMB     45       OSM      H16F     HAL2     0.900000E-01   1.00800           0
      5232 MEMB     45       OSM      H16G     HAL2     0.900000E-01   1.00800           0
      5233 MEMB     45       OSM      C17F     CTL2    -0.180000       12.0110           0
      5234 MEMB     45       OSM      H17F     HAL2     0.900000E-01   1.00800           0
      5235 MEMB     45       OSM      H17G     HAL2     0.900000E-01   1.00800           0
      5236 MEMB     45       OSM      C18F     CTL3    -0.270000       12.0110           0
      5237 MEMB     45       OSM      H18F     HAL3     0.900000E-01   1.00800           0
      5238 MEMB     45       OSM      H18G     HAL3     0.900000E-01   1.00800           0
      5239 MEMB     45       OSM      H18H     HAL3     0.900000E-01   1.00800           0
      5240 MEMB     46       OSM      N        NTL     -0.600000       14.0070           0
      5241 MEMB     46       OSM      C15      CTL5    -0.350000       12.0110           0
      5242 MEMB     46       OSM      H15A     HL       0.250000       1.00800           0
      5243 MEMB     46       OSM      H15B     HL       0.250000       1.00800           0
      5244 MEMB     46       OSM      H15C     HL       0.250000       1.00800           0
      5245 MEMB     46       OSM      C14      CTL5    -0.350000       12.0110           0
      5246 MEMB     46       OSM      H14A     HL       0.250000       1.00800           0
      5247 MEMB     46       OSM      H14B     HL       0.250000       1.00800           0
      5248 MEMB     46       OSM      H14C     HL       0.250000       1.00800           0
      5249 MEMB     46       OSM      C13      CTL5    -0.350000       12.0110           0
      5250 MEMB     46       OSM      H13A     HL       0.250000       1.00800           0
      5251 MEMB     46       OSM      H13B     HL       0.250000       1.00800           0
      5252 MEMB     46       OSM      H13C     HL       0.250000       1.00800           0
      5253 MEMB     46       OSM      C12      CTL2    -0.100000       12.0110           0
      5254 MEMB     46       OSM      H12A     HL       0.250000       1.00800           0
      5255 MEMB     46       OSM      H12B     HL       0.250000       1.00800           0
      5256 MEMB     46       OSM      C11      CTL2    -0.800000E-01   12.0110           0
      5257 MEMB     46       OSM      H11A     HAL2     0.900000E-01   1.00800           0
      5258 MEMB     46       OSM      H11B     HAL2     0.900000E-01   1.00800           0
      5259 MEMB     46       OSM      P        PL        1.50000       30.9740           0
      5260 MEMB     46       OSM      O13      O2L     -0.780000       15.9994           0
      5261 MEMB     46       OSM      O14      O2L     -0.780000       15.9994           0
      5262 MEMB     46       OSM      O11      OSLP    -0.570000       15.9994           0
      5263 MEMB     46       OSM      O12      OSLP    -0.570000       15.9994           0
      5264 MEMB     46       OSM      C1S      CTL2    -0.800000E-01   12.0110           0
      5265 MEMB     46       OSM      H1S      HAL2     0.900000E-01   1.00800           0
      5266 MEMB     46       OSM      H1T      HAL2     0.900000E-01   1.00800           0
      5267 MEMB     46       OSM      NF       NHL     -0.700000       14.0070           0
      5268 MEMB     46       OSM      HNF      H        0.350000       1.00800           0
      5269 MEMB     46       OSM      C2S      CTL1     0.300000       12.0110           0
      5270 MEMB     46       OSM      H2S      HAL1     0.500000E-01   1.00800           0
      5271 MEMB     46       OSM      C3S      CTO1     0.500000       12.0110           0
      5272 MEMB     46       OSM      H3S      HAL1    -0.110000       1.00800           0
      5273 MEMB     46       OSM      O3       OHL     -0.690000       15.9994           0
      5274 MEMB     46       OSM      HO3      HOL      0.300000       1.00800           0
      5275 MEMB     46       OSM      C4S      CEL3    -0.150000       12.0110           0
      5276 MEMB     46       OSM      H4S      HEL1     0.150000       1.00800           0
      5277 MEMB     46       OSM      C5S      CEL3    -0.150000       12.0110           0
      5278 MEMB     46       OSM      H5S      HEL1     0.150000       1.00800           0
      5279 MEMB     46       OSM      C6S      CTL2    -0.180000       12.0110           0
      5280 MEMB     46       OSM      H6S      HAL2     0.900000E-01   1.00800           0
      5281 MEMB     46       OSM      H6T      HAL2     0.900000E-01   1.00800           0
      5282 MEMB     46       OSM      C7S      CTL2    -0.180000       12.0110           0
      5283 MEMB     46       OSM      H7S      HAL2     0.900000E-01   1.00800           0
      5284 MEMB     46       OSM      H7T      HAL2     0.900000E-01   1.00800           0
      5285 MEMB     46       OSM      C8S      CTL2    -0.180000       12.0110           0
      5286 MEMB     46       OSM      H8S      HAL2     0.900000E-01   1.00800           0
      5287 MEMB     46       OSM      H8T      HAL2     0.900000E-01   1.00800           0
      5288 MEMB     46       OSM      C9S      CTL2    -0.180000       12.0110           0
      5289 MEMB     46       OSM      H9S      HAL2     0.900000E-01   1.00800           0
      5290 MEMB     46       OSM      H9T      HAL2     0.900000E-01   1.00800           0
      5291 MEMB     46       OSM      C10S     CTL2    -0.180000       12.0110           0
      5292 MEMB     46       OSM      H10S     HAL2     0.900000E-01   1.00800           0
      5293 MEMB     46       OSM      H10T     HAL2     0.900000E-01   1.00800           0
      5294 MEMB     46       OSM      C11S     CTL2    -0.180000       12.0110           0
      5295 MEMB     46       OSM      H11S     HAL2     0.900000E-01   1.00800           0
      5296 MEMB     46       OSM      H11T     HAL2     0.900000E-01   1.00800           0
      5297 MEMB     46       OSM      C12S     CTL2    -0.180000       12.0110           0
      5298 MEMB     46       OSM      H12S     HAL2     0.900000E-01   1.00800           0
      5299 MEMB     46       OSM      H12T     HAL2     0.900000E-01   1.00800           0
      5300 MEMB     46       OSM      C13S     CTL2    -0.180000       12.0110           0
      5301 MEMB     46       OSM      H13S     HAL2     0.900000E-01   1.00800           0
      5302 MEMB     46       OSM      H13T     HAL2     0.900000E-01   1.00800           0
      5303 MEMB     46       OSM      C14S     CTL2    -0.180000       12.0110           0
      5304 MEMB     46       OSM      H14S     HAL2     0.900000E-01   1.00800           0
      5305 MEMB     46       OSM      H14T     HAL2     0.900000E-01   1.00800           0
      5306 MEMB     46       OSM      C15S     CTL2    -0.180000       12.0110           0
      5307 MEMB     46       OSM      H15S     HAL2     0.900000E-01   1.00800           0
      5308 MEMB     46       OSM      H15T     HAL2     0.900000E-01   1.00800           0
      5309 MEMB     46       OSM      C16S     CTL2    -0.180000       12.0110           0
      5310 MEMB     46       OSM      H16S     HAL2     0.900000E-01   1.00800           0
      5311 MEMB     46       OSM      H16T     HAL2     0.900000E-01   1.00800           0
      5312 MEMB     46       OSM      C17S     CTL2    -0.180000       12.0110           0
      5313 MEMB     46       OSM      H17S     HAL2     0.900000E-01   1.00800           0
      5314 MEMB     46       OSM      H17T     HAL2     0.900000E-01   1.00800           0
      5315 MEMB     46       OSM      C18S     CTL3    -0.270000       12.0110           0
      5316 MEMB     46       OSM      H18S     HAL3     0.900000E-01   1.00800           0
      5317 MEMB     46       OSM      H18T     HAL3     0.900000E-01   1.00800           0
      5318 MEMB     46       OSM      H18U     HAL3     0.900000E-01   1.00800           0
      5319 MEMB     46       OSM      C1F      C        0.550000       12.0110           0
      5320 MEMB     46       OSM      OF       O       -0.600000       15.9994           0
      5321 MEMB     46       OSM      C2F      CTL2    -0.700000E-01   12.0110           0
      5322 MEMB     46       OSM      H2F      HAL2     0.600000E-01   1.00800           0
      5323 MEMB     46       OSM      H2G      HAL2     0.600000E-01   1.00800           0
      5324 MEMB     46       OSM      C3F      CTL2    -0.180000       12.0110           0
      5325 MEMB     46       OSM      H3F      HAL2     0.900000E-01   1.00800           0
      5326 MEMB     46       OSM      H3G      HAL2     0.900000E-01   1.00800           0
      5327 MEMB     46       OSM      C4F      CTL2    -0.180000       12.0110           0
      5328 MEMB     46       OSM      H4F      HAL2     0.900000E-01   1.00800           0
      5329 MEMB     46       OSM      H4G      HAL2     0.900000E-01   1.00800           0
      5330 MEMB     46       OSM      C5F      CTL2    -0.180000       12.0110           0
      5331 MEMB     46       OSM      H5F      HAL2     0.900000E-01   1.00800           0
      5332 MEMB     46       OSM      H5G      HAL2     0.900000E-01   1.00800           0
      5333 MEMB     46       OSM      C6F      CTL2    -0.180000       12.0110           0
      5334 MEMB     46       OSM      H6F      HAL2     0.900000E-01   1.00800           0
      5335 MEMB     46       OSM      H6G      HAL2     0.900000E-01   1.00800           0
      5336 MEMB     46       OSM      C7F      CTL2    -0.180000       12.0110           0
      5337 MEMB     46       OSM      H7F      HAL2     0.900000E-01   1.00800           0
      5338 MEMB     46       OSM      H7G      HAL2     0.900000E-01   1.00800           0
      5339 MEMB     46       OSM      C8F      CTL2    -0.180000       12.0110           0
      5340 MEMB     46       OSM      H8F      HAL2     0.900000E-01   1.00800           0
      5341 MEMB     46       OSM      H8G      HAL2     0.900000E-01   1.00800           0
      5342 MEMB     46       OSM      C9F      CEL1    -0.150000       12.0110           0
      5343 MEMB     46       OSM      H9F      HEL1     0.150000       1.00800           0
      5344 MEMB     46       OSM      C10F     CEL1    -0.150000       12.0110           0
      5345 MEMB     46       OSM      H10F     HEL1     0.150000       1.00800           0
      5346 MEMB     46       OSM      C11F     CTL2    -0.180000       12.0110           0
      5347 MEMB     46       OSM      H11F     HAL2     0.900000E-01   1.00800           0
      5348 MEMB     46       OSM      H11G     HAL2     0.900000E-01   1.00800           0
      5349 MEMB     46       OSM      C12F     CTL2    -0.180000       12.0110           0
      5350 MEMB     46       OSM      H12F     HAL2     0.900000E-01   1.00800           0
      5351 MEMB     46       OSM      H12G     HAL2     0.900000E-01   1.00800           0
      5352 MEMB     46       OSM      C13F     CTL2    -0.180000       12.0110           0
      5353 MEMB     46       OSM      H13F     HAL2     0.900000E-01   1.00800           0
      5354 MEMB     46       OSM      H13G     HAL2     0.900000E-01   1.00800           0
      5355 MEMB     46       OSM      C14F     CTL2    -0.180000       12.0110           0
      5356 MEMB     46       OSM      H14F     HAL2     0.900000E-01   1.00800           0
      5357 MEMB     46       OSM      H14G     HAL2     0.900000E-01   1.00800           0
      5358 MEMB     46       OSM      C15F     CTL2    -0.180000       12.0110           0
      5359 MEMB     46       OSM      H15F     HAL2     0.900000E-01   1.00800           0
      5360 MEMB     46       OSM      H15G     HAL2     0.900000E-01   1.00800           0
      5361 MEMB     46       OSM      C16F     CTL2    -0.180000       12.0110           0
      5362 MEMB     46       OSM      H16F     HAL2     0.900000E-01   1.00800           0
      5363 MEMB     46       OSM      H16G     HAL2     0.900000E-01   1.00800           0
      5364 MEMB     46       OSM      C17F     CTL2    -0.180000       12.0110           0
      5365 MEMB     46       OSM      H17F     HAL2     0.900000E-01   1.00800           0
      5366 MEMB     46       OSM      H17G     HAL2     0.900000E-01   1.00800           0
      5367 MEMB     46       OSM      C18F     CTL3    -0.270000       12.0110           0
      5368 MEMB     46       OSM      H18F     HAL3     0.900000E-01   1.00800           0
      5369 MEMB     46       OSM      H18G     HAL3     0.900000E-01   1.00800           0
      5370 MEMB     46       OSM      H18H     HAL3     0.900000E-01   1.00800           0
      5371 MEMB     47       CHL1     C3       CRL1     0.140000       12.0110           0
      5372 MEMB     47       CHL1     H3       HGA1     0.900000E-01   1.00800           0
      5373 MEMB     47       CHL1     O3       OHL     -0.660000       15.9994           0
      5374 MEMB     47       CHL1     H3'      HOL      0.430000       1.00800           0
      5375 MEMB     47       CHL1     C4       CRL2    -0.180000       12.0110           0
      5376 MEMB     47       CHL1     H4A      HGA2     0.900000E-01   1.00800           0
      5377 MEMB     47       CHL1     H4B      HGA2     0.900000E-01   1.00800           0
      5378 MEMB     47       CHL1     C5       CEL1      0.00000       12.0110           0
      5379 MEMB     47       CHL1     C6       CEL1    -0.150000       12.0110           0
      5380 MEMB     47       CHL1     H6       HEL1     0.150000       1.00800           0
      5381 MEMB     47       CHL1     C7       CRL2    -0.180000       12.0110           0
      5382 MEMB     47       CHL1     H7A      HGA2     0.900000E-01   1.00800           0
      5383 MEMB     47       CHL1     H7B      HGA2     0.900000E-01   1.00800           0
      5384 MEMB     47       CHL1     C8       CRL1    -0.900000E-01   12.0110           0
      5385 MEMB     47       CHL1     H8       HGA1     0.900000E-01   1.00800           0
      5386 MEMB     47       CHL1     C14      CRL1    -0.900000E-01   12.0110           0
      5387 MEMB     47       CHL1     H14      HGA1     0.900000E-01   1.00800           0
      5388 MEMB     47       CHL1     C15      CRL2    -0.180000       12.0110           0
      5389 MEMB     47       CHL1     H15A     HGA2     0.900000E-01   1.00800           0
      5390 MEMB     47       CHL1     H15B     HGA2     0.900000E-01   1.00800           0
      5391 MEMB     47       CHL1     C16      CRL2    -0.180000       12.0110           0
      5392 MEMB     47       CHL1     H16A     HGA2     0.900000E-01   1.00800           0
      5393 MEMB     47       CHL1     H16B     HGA2     0.900000E-01   1.00800           0
      5394 MEMB     47       CHL1     C17      CRL1    -0.900000E-01   12.0110           0
      5395 MEMB     47       CHL1     H17      HGA1     0.900000E-01   1.00800           0
      5396 MEMB     47       CHL1     C13      CRL1      0.00000       12.0110           0
      5397 MEMB     47       CHL1     C18      CTL3    -0.270000       12.0110           0
      5398 MEMB     47       CHL1     H18A     HAL3     0.900000E-01   1.00800           0
      5399 MEMB     47       CHL1     H18B     HAL3     0.900000E-01   1.00800           0
      5400 MEMB     47       CHL1     H18C     HAL3     0.900000E-01   1.00800           0
      5401 MEMB     47       CHL1     C12      CRL2    -0.180000       12.0110           0
      5402 MEMB     47       CHL1     H12A     HGA2     0.900000E-01   1.00800           0
      5403 MEMB     47       CHL1     H12B     HGA2     0.900000E-01   1.00800           0
      5404 MEMB     47       CHL1     C11      CRL2    -0.180000       12.0110           0
      5405 MEMB     47       CHL1     H11A     HGA2     0.900000E-01   1.00800           0
      5406 MEMB     47       CHL1     H11B     HGA2     0.900000E-01   1.00800           0
      5407 MEMB     47       CHL1     C9       CRL1    -0.900000E-01   12.0110           0
      5408 MEMB     47       CHL1     H9       HGA1     0.900000E-01   1.00800           0
      5409 MEMB     47       CHL1     C10      CRL1      0.00000       12.0110           0
      5410 MEMB     47       CHL1     C19      CTL3    -0.270000       12.0110           0
      5411 MEMB     47       CHL1     H19A     HAL3     0.900000E-01   1.00800           0
      5412 MEMB     47       CHL1     H19B     HAL3     0.900000E-01   1.00800           0
      5413 MEMB     47       CHL1     H19C     HAL3     0.900000E-01   1.00800           0
      5414 MEMB     47       CHL1     C1       CRL2    -0.180000       12.0110           0
      5415 MEMB     47       CHL1     H1A      HGA2     0.900000E-01   1.00800           0
      5416 MEMB     47       CHL1     H1B      HGA2     0.900000E-01   1.00800           0
      5417 MEMB     47       CHL1     C2       CRL2    -0.180000       12.0110           0
      5418 MEMB     47       CHL1     H2A      HGA2     0.900000E-01   1.00800           0
      5419 MEMB     47       CHL1     H2B      HGA2     0.900000E-01   1.00800           0
      5420 MEMB     47       CHL1     C20      CTL1    -0.900000E-01   12.0110           0
      5421 MEMB     47       CHL1     H20      HAL1     0.900000E-01   1.00800           0
      5422 MEMB     47       CHL1     C21      CTL3    -0.270000       12.0110           0
      5423 MEMB     47       CHL1     H21A     HAL3     0.900000E-01   1.00800           0
      5424 MEMB     47       CHL1     H21B     HAL3     0.900000E-01   1.00800           0
      5425 MEMB     47       CHL1     H21C     HAL3     0.900000E-01   1.00800           0
      5426 MEMB     47       CHL1     C22      CTL2    -0.180000       12.0110           0
      5427 MEMB     47       CHL1     H22A     HAL2     0.900000E-01   1.00800           0
      5428 MEMB     47       CHL1     H22B     HAL2     0.900000E-01   1.00800           0
      5429 MEMB     47       CHL1     C23      CTL2    -0.180000       12.0110           0
      5430 MEMB     47       CHL1     H23A     HAL2     0.900000E-01   1.00800           0
      5431 MEMB     47       CHL1     H23B     HAL2     0.900000E-01   1.00800           0
      5432 MEMB     47       CHL1     C24      CTL2    -0.180000       12.0110           0
      5433 MEMB     47       CHL1     H24A     HAL2     0.900000E-01   1.00800           0
      5434 MEMB     47       CHL1     H24B     HAL2     0.900000E-01   1.00800           0
      5435 MEMB     47       CHL1     C25      CTL1    -0.900000E-01   12.0110           0
      5436 MEMB     47       CHL1     H25      HAL1     0.900000E-01   1.00800           0
      5437 MEMB     47       CHL1     C26      CTL3    -0.270000       12.0110           0
      5438 MEMB     47       CHL1     H26A     HAL3     0.900000E-01   1.00800           0
      5439 MEMB     47       CHL1     H26B     HAL3     0.900000E-01   1.00800           0
      5440 MEMB     47       CHL1     H26C     HAL3     0.900000E-01   1.00800           0
      5441 MEMB     47       CHL1     C27      CTL3    -0.270000       12.0110           0
      5442 MEMB     47       CHL1     H27A     HAL3     0.900000E-01   1.00800           0
      5443 MEMB     47       CHL1     H27B     HAL3     0.900000E-01   1.00800           0
      5444 MEMB     47       CHL1     H27C     HAL3     0.900000E-01   1.00800           0
      5445 MEMB     48       CHL1     C3       CRL1     0.140000       12.0110           0
      5446 MEMB     48       CHL1     H3       HGA1     0.900000E-01   1.00800           0
      5447 MEMB     48       CHL1     O3       OHL     -0.660000       15.9994           0
      5448 MEMB     48       CHL1     H3'      HOL      0.430000       1.00800           0
      5449 MEMB     48       CHL1     C4       CRL2    -0.180000       12.0110           0
      5450 MEMB     48       CHL1     H4A      HGA2     0.900000E-01   1.00800           0
      5451 MEMB     48       CHL1     H4B      HGA2     0.900000E-01   1.00800           0
      5452 MEMB     48       CHL1     C5       CEL1      0.00000       12.0110           0
      5453 MEMB     48       CHL1     C6       CEL1    -0.150000       12.0110           0
      5454 MEMB     48       CHL1     H6       HEL1     0.150000       1.00800           0
      5455 MEMB     48       CHL1     C7       CRL2    -0.180000       12.0110           0
      5456 MEMB     48       CHL1     H7A      HGA2     0.900000E-01   1.00800           0
      5457 MEMB     48       CHL1     H7B      HGA2     0.900000E-01   1.00800           0
      5458 MEMB     48       CHL1     C8       CRL1    -0.900000E-01   12.0110           0
      5459 MEMB     48       CHL1     H8       HGA1     0.900000E-01   1.00800           0
      5460 MEMB     48       CHL1     C14      CRL1    -0.900000E-01   12.0110           0
      5461 MEMB     48       CHL1     H14      HGA1     0.900000E-01   1.00800           0
      5462 MEMB     48       CHL1     C15      CRL2    -0.180000       12.0110           0
      5463 MEMB     48       CHL1     H15A     HGA2     0.900000E-01   1.00800           0
      5464 MEMB     48       CHL1     H15B     HGA2     0.900000E-01   1.00800           0
      5465 MEMB     48       CHL1     C16      CRL2    -0.180000       12.0110           0
      5466 MEMB     48       CHL1     H16A     HGA2     0.900000E-01   1.00800           0
      5467 MEMB     48       CHL1     H16B     HGA2     0.900000E-01   1.00800           0
      5468 MEMB     48       CHL1     C17      CRL1    -0.900000E-01   12.0110           0
      5469 MEMB     48       CHL1     H17      HGA1     0.900000E-01   1.00800           0
      5470 MEMB     48       CHL1     C13      CRL1      0.00000       12.0110           0
      5471 MEMB     48       CHL1     C18      CTL3    -0.270000       12.0110           0
      5472 MEMB     48       CHL1     H18A     HAL3     0.900000E-01   1.00800           0
      5473 MEMB     48       CHL1     H18B     HAL3     0.900000E-01   1.00800           0
      5474 MEMB     48       CHL1     H18C     HAL3     0.900000E-01   1.00800           0
      5475 MEMB     48       CHL1     C12      CRL2    -0.180000       12.0110           0
      5476 MEMB     48       CHL1     H12A     HGA2     0.900000E-01   1.00800           0
      5477 MEMB     48       CHL1     H12B     HGA2     0.900000E-01   1.00800           0
      5478 MEMB     48       CHL1     C11      CRL2    -0.180000       12.0110           0
      5479 MEMB     48       CHL1     H11A     HGA2     0.900000E-01   1.00800           0
      5480 MEMB     48       CHL1     H11B     HGA2     0.900000E-01   1.00800           0
      5481 MEMB     48       CHL1     C9       CRL1    -0.900000E-01   12.0110           0
      5482 MEMB     48       CHL1     H9       HGA1     0.900000E-01   1.00800           0
      5483 MEMB     48       CHL1     C10      CRL1      0.00000       12.0110           0
      5484 MEMB     48       CHL1     C19      CTL3    -0.270000       12.0110           0
      5485 MEMB     48       CHL1     H19A     HAL3     0.900000E-01   1.00800           0
      5486 MEMB     48       CHL1     H19B     HAL3     0.900000E-01   1.00800           0
      5487 MEMB     48       CHL1     H19C     HAL3     0.900000E-01   1.00800           0
      5488 MEMB     48       CHL1     C1       CRL2    -0.180000       12.0110           0
      5489 MEMB     48       CHL1     H1A      HGA2     0.900000E-01   1.00800           0
      5490 MEMB     48       CHL1     H1B      HGA2     0.900000E-01   1.00800           0
      5491 MEMB     48       CHL1     C2       CRL2    -0.180000       12.0110           0
      5492 MEMB     48       CHL1     H2A      HGA2     0.900000E-01   1.00800           0
      5493 MEMB     48       CHL1     H2B      HGA2     0.900000E-01   1.00800           0
      5494 MEMB     48       CHL1     C20      CTL1    -0.900000E-01   12.0110           0
      5495 MEMB     48       CHL1     H20      HAL1     0.900000E-01   1.00800           0
      5496 MEMB     48       CHL1     C21      CTL3    -0.270000       12.0110           0
      5497 MEMB     48       CHL1     H21A     HAL3     0.900000E-01   1.00800           0
      5498 MEMB     48       CHL1     H21B     HAL3     0.900000E-01   1.00800           0
      5499 MEMB     48       CHL1     H21C     HAL3     0.900000E-01   1.00800           0
      5500 MEMB     48       CHL1     C22      CTL2    -0.180000       12.0110           0
      5501 MEMB     48       CHL1     H22A     HAL2     0.900000E-01   1.00800           0
      5502 MEMB     48       CHL1     H22B     HAL2     0.900000E-01   1.00800           0
      5503 MEMB     48       CHL1     C23      CTL2    -0.180000       12.0110           0
      5504 MEMB     48       CHL1     H23A     HAL2     0.900000E-01   1.00800           0
      5505 MEMB     48       CHL1     H23B     HAL2     0.900000E-01   1.00800           0
      5506 MEMB     48       CHL1     C24      CTL2    -0.180000       12.0110           0
      5507 MEMB     48       CHL1     H24A     HAL2     0.900000E-01   1.00800           0
      5508 MEMB     48       CHL1     H24B     HAL2     0.900000E-01   1.00800           0
      5509 MEMB     48       CHL1     C25      CTL1    -0.900000E-01   12.0110           0
      5510 MEMB     48       CHL1     H25      HAL1     0.900000E-01   1.00800           0
      5511 MEMB     48       CHL1     C26      CTL3    -0.270000       12.0110           0
      5512 MEMB     48       CHL1     H26A     HAL3     0.900000E-01   1.00800           0
      5513 MEMB     48       CHL1     H26B     HAL3     0.900000E-01   1.00800           0
      5514 MEMB     48       CHL1     H26C     HAL3     0.900000E-01   1.00800           0
      5515 MEMB     48       CHL1     C27      CTL3    -0.270000       12.0110           0
      5516 MEMB     48       CHL1     H27A     HAL3     0.900000E-01   1.00800           0
      5517 MEMB     48       CHL1     H27B     HAL3     0.900000E-01   1.00800           0
      5518 MEMB     48       CHL1     H27C     HAL3     0.900000E-01   1.00800           0
      5519 MEMB     49       CHL1     C3       CRL1     0.140000       12.0110           0
      5520 MEMB     49       CHL1     H3       HGA1     0.900000E-01   1.00800           0
      5521 MEMB     49       CHL1     O3       OHL     -0.660000       15.9994           0
      5522 MEMB     49       CHL1     H3'      HOL      0.430000       1.00800           0
      5523 MEMB     49       CHL1     C4       CRL2    -0.180000       12.0110           0
      5524 MEMB     49       CHL1     H4A      HGA2     0.900000E-01   1.00800           0
      5525 MEMB     49       CHL1     H4B      HGA2     0.900000E-01   1.00800           0
      5526 MEMB     49       CHL1     C5       CEL1      0.00000       12.0110           0
      5527 MEMB     49       CHL1     C6       CEL1    -0.150000       12.0110           0
      5528 MEMB     49       CHL1     H6       HEL1     0.150000       1.00800           0
      5529 MEMB     49       CHL1     C7       CRL2    -0.180000       12.0110           0
      5530 MEMB     49       CHL1     H7A      HGA2     0.900000E-01   1.00800           0
      5531 MEMB     49       CHL1     H7B      HGA2     0.900000E-01   1.00800           0
      5532 MEMB     49       CHL1     C8       CRL1    -0.900000E-01   12.0110           0
      5533 MEMB     49       CHL1     H8       HGA1     0.900000E-01   1.00800           0
      5534 MEMB     49       CHL1     C14      CRL1    -0.900000E-01   12.0110           0
      5535 MEMB     49       CHL1     H14      HGA1     0.900000E-01   1.00800           0
      5536 MEMB     49       CHL1     C15      CRL2    -0.180000       12.0110           0
      5537 MEMB     49       CHL1     H15A     HGA2     0.900000E-01   1.00800           0
      5538 MEMB     49       CHL1     H15B     HGA2     0.900000E-01   1.00800           0
      5539 MEMB     49       CHL1     C16      CRL2    -0.180000       12.0110           0
      5540 MEMB     49       CHL1     H16A     HGA2     0.900000E-01   1.00800           0
      5541 MEMB     49       CHL1     H16B     HGA2     0.900000E-01   1.00800           0
      5542 MEMB     49       CHL1     C17      CRL1    -0.900000E-01   12.0110           0
      5543 MEMB     49       CHL1     H17      HGA1     0.900000E-01   1.00800           0
      5544 MEMB     49       CHL1     C13      CRL1      0.00000       12.0110           0
      5545 MEMB     49       CHL1     C18      CTL3    -0.270000       12.0110           0
      5546 MEMB     49       CHL1     H18A     HAL3     0.900000E-01   1.00800           0
      5547 MEMB     49       CHL1     H18B     HAL3     0.900000E-01   1.00800           0
      5548 MEMB     49       CHL1     H18C     HAL3     0.900000E-01   1.00800           0
      5549 MEMB     49       CHL1     C12      CRL2    -0.180000       12.0110           0
      5550 MEMB     49       CHL1     H12A     HGA2     0.900000E-01   1.00800           0
      5551 MEMB     49       CHL1     H12B     HGA2     0.900000E-01   1.00800           0
      5552 MEMB     49       CHL1     C11      CRL2    -0.180000       12.0110           0
      5553 MEMB     49       CHL1     H11A     HGA2     0.900000E-01   1.00800           0
      5554 MEMB     49       CHL1     H11B     HGA2     0.900000E-01   1.00800           0
      5555 MEMB     49       CHL1     C9       CRL1    -0.900000E-01   12.0110           0
      5556 MEMB     49       CHL1     H9       HGA1     0.900000E-01   1.00800           0
      5557 MEMB     49       CHL1     C10      CRL1      0.00000       12.0110           0
      5558 MEMB     49       CHL1     C19      CTL3    -0.270000       12.0110           0
      5559 MEMB     49       CHL1     H19A     HAL3     0.900000E-01   1.00800           0
      5560 MEMB     49       CHL1     H19B     HAL3     0.900000E-01   1.00800           0
      5561 MEMB     49       CHL1     H19C     HAL3     0.900000E-01   1.00800           0
      5562 MEMB     49       CHL1     C1       CRL2    -0.180000       12.0110           0
      5563 MEMB     49       CHL1     H1A      HGA2     0.900000E-01   1.00800           0
      5564 MEMB     49       CHL1     H1B      HGA2     0.900000E-01   1.00800           0
      5565 MEMB     49       CHL1     C2       CRL2    -0.180000       12.0110           0
      5566 MEMB     49       CHL1     H2A      HGA2     0.900000E-01   1.00800           0
      5567 MEMB     49       CHL1     H2B      HGA2     0.900000E-01   1.00800           0
      5568 MEMB     49       CHL1     C20      CTL1    -0.900000E-01   12.0110           0
      5569 MEMB     49       CHL1     H20      HAL1     0.900000E-01   1.00800           0
      5570 MEMB     49       CHL1     C21      CTL3    -0.270000       12.0110           0
      5571 MEMB     49       CHL1     H21A     HAL3     0.900000E-01   1.00800           0
      5572 MEMB     49       CHL1     H21B     HAL3     0.900000E-01   1.00800           0
      5573 MEMB     49       CHL1     H21C     HAL3     0.900000E-01   1.00800           0
      5574 MEMB     49       CHL1     C22      CTL2    -0.180000       12.0110           0
      5575 MEMB     49       CHL1     H22A     HAL2     0.900000E-01   1.00800           0
      5576 MEMB     49       CHL1     H22B     HAL2     0.900000E-01   1.00800           0
      5577 MEMB     49       CHL1     C23      CTL2    -0.180000       12.0110           0
      5578 MEMB     49       CHL1     H23A     HAL2     0.900000E-01   1.00800           0
      5579 MEMB     49       CHL1     H23B     HAL2     0.900000E-01   1.00800           0
      5580 MEMB     49       CHL1     C24      CTL2    -0.180000       12.0110           0
      5581 MEMB     49       CHL1     H24A     HAL2     0.900000E-01   1.00800           0
      5582 MEMB     49       CHL1     H24B     HAL2     0.900000E-01   1.00800           0
      5583 MEMB     49       CHL1     C25      CTL1    -0.900000E-01   12.0110           0
      5584 MEMB     49       CHL1     H25      HAL1     0.900000E-01   1.00800           0
      5585 MEMB     49       CHL1     C26      CTL3    -0.270000       12.0110           0
      5586 MEMB     49       CHL1     H26A     HAL3     0.900000E-01   1.00800           0
      5587 MEMB     49       CHL1     H26B     HAL3     0.900000E-01   1.00800           0
      5588 MEMB     49       CHL1     H26C     HAL3     0.900000E-01   1.00800           0
      5589 MEMB     49       CHL1     C27      CTL3    -0.270000       12.0110           0
      5590 MEMB     49       CHL1     H27A     HAL3     0.900000E-01   1.00800           0
      5591 MEMB     49       CHL1     H27B     HAL3     0.900000E-01   1.00800           0
      5592 MEMB     49       CHL1     H27C     HAL3     0.900000E-01   1.00800           0
      5593 MEMB     50       CHL1     C3       CRL1     0.140000       12.0110           0
      5594 MEMB     50       CHL1     H3       HGA1     0.900000E-01   1.00800           0
      5595 MEMB     50       CHL1     O3       OHL     -0.660000       15.9994           0
      5596 MEMB     50       CHL1     H3'      HOL      0.430000       1.00800           0
      5597 MEMB     50       CHL1     C4       CRL2    -0.180000       12.0110           0
      5598 MEMB     50       CHL1     H4A      HGA2     0.900000E-01   1.00800           0
      5599 MEMB     50       CHL1     H4B      HGA2     0.900000E-01   1.00800           0
      5600 MEMB     50       CHL1     C5       CEL1      0.00000       12.0110           0
      5601 MEMB     50       CHL1     C6       CEL1    -0.150000       12.0110           0
      5602 MEMB     50       CHL1     H6       HEL1     0.150000       1.00800           0
      5603 MEMB     50       CHL1     C7       CRL2    -0.180000       12.0110           0
      5604 MEMB     50       CHL1     H7A      HGA2     0.900000E-01   1.00800           0
      5605 MEMB     50       CHL1     H7B      HGA2     0.900000E-01   1.00800           0
      5606 MEMB     50       CHL1     C8       CRL1    -0.900000E-01   12.0110           0
      5607 MEMB     50       CHL1     H8       HGA1     0.900000E-01   1.00800           0
      5608 MEMB     50       CHL1     C14      CRL1    -0.900000E-01   12.0110           0
      5609 MEMB     50       CHL1     H14      HGA1     0.900000E-01   1.00800           0
      5610 MEMB     50       CHL1     C15      CRL2    -0.180000       12.0110           0
      5611 MEMB     50       CHL1     H15A     HGA2     0.900000E-01   1.00800           0
      5612 MEMB     50       CHL1     H15B     HGA2     0.900000E-01   1.00800           0
      5613 MEMB     50       CHL1     C16      CRL2    -0.180000       12.0110           0
      5614 MEMB     50       CHL1     H16A     HGA2     0.900000E-01   1.00800           0
      5615 MEMB     50       CHL1     H16B     HGA2     0.900000E-01   1.00800           0
      5616 MEMB     50       CHL1     C17      CRL1    -0.900000E-01   12.0110           0
      5617 MEMB     50       CHL1     H17      HGA1     0.900000E-01   1.00800           0
      5618 MEMB     50       CHL1     C13      CRL1      0.00000       12.0110           0
      5619 MEMB     50       CHL1     C18      CTL3    -0.270000       12.0110           0
      5620 MEMB     50       CHL1     H18A     HAL3     0.900000E-01   1.00800           0
      5621 MEMB     50       CHL1     H18B     HAL3     0.900000E-01   1.00800           0
      5622 MEMB     50       CHL1     H18C     HAL3     0.900000E-01   1.00800           0
      5623 MEMB     50       CHL1     C12      CRL2    -0.180000       12.0110           0
      5624 MEMB     50       CHL1     H12A     HGA2     0.900000E-01   1.00800           0
      5625 MEMB     50       CHL1     H12B     HGA2     0.900000E-01   1.00800           0
      5626 MEMB     50       CHL1     C11      CRL2    -0.180000       12.0110           0
      5627 MEMB     50       CHL1     H11A     HGA2     0.900000E-01   1.00800           0
      5628 MEMB     50       CHL1     H11B     HGA2     0.900000E-01   1.00800           0
      5629 MEMB     50       CHL1     C9       CRL1    -0.900000E-01   12.0110           0
      5630 MEMB     50       CHL1     H9       HGA1     0.900000E-01   1.00800           0
      5631 MEMB     50       CHL1     C10      CRL1      0.00000       12.0110           0
      5632 MEMB     50       CHL1     C19      CTL3    -0.270000       12.0110           0
      5633 MEMB     50       CHL1     H19A     HAL3     0.900000E-01   1.00800           0
      5634 MEMB     50       CHL1     H19B     HAL3     0.900000E-01   1.00800           0
      5635 MEMB     50       CHL1     H19C     HAL3     0.900000E-01   1.00800           0
      5636 MEMB     50       CHL1     C1       CRL2    -0.180000       12.0110           0
      5637 MEMB     50       CHL1     H1A      HGA2     0.900000E-01   1.00800           0
      5638 MEMB     50       CHL1     H1B      HGA2     0.900000E-01   1.00800           0
      5639 MEMB     50       CHL1     C2       CRL2    -0.180000       12.0110           0
      5640 MEMB     50       CHL1     H2A      HGA2     0.900000E-01   1.00800           0
      5641 MEMB     50       CHL1     H2B      HGA2     0.900000E-01   1.00800           0
      5642 MEMB     50       CHL1     C20      CTL1    -0.900000E-01   12.0110           0
      5643 MEMB     50       CHL1     H20      HAL1     0.900000E-01   1.00800           0
      5644 MEMB     50       CHL1     C21      CTL3    -0.270000       12.0110           0
      5645 MEMB     50       CHL1     H21A     HAL3     0.900000E-01   1.00800           0
      5646 MEMB     50       CHL1     H21B     HAL3     0.900000E-01   1.00800           0
      5647 MEMB     50       CHL1     H21C     HAL3     0.900000E-01   1.00800           0
      5648 MEMB     50       CHL1     C22      CTL2    -0.180000       12.0110           0
      5649 MEMB     50       CHL1     H22A     HAL2     0.900000E-01   1.00800           0
      5650 MEMB     50       CHL1     H22B     HAL2     0.900000E-01   1.00800           0
      5651 MEMB     50       CHL1     C23      CTL2    -0.180000       12.0110           0
      5652 MEMB     50       CHL1     H23A     HAL2     0.900000E-01   1.00800           0
      5653 MEMB     50       CHL1     H23B     HAL2     0.900000E-01   1.00800           0
      5654 MEMB     50       CHL1     C24      CTL2    -0.180000       12.0110           0
      5655 MEMB     50       CHL1     H24A     HAL2     0.900000E-01   1.00800           0
      5656 MEMB     50       CHL1     H24B     HAL2     0.900000E-01   1.00800           0
      5657 MEMB     50       CHL1     C25      CTL1    -0.900000E-01   12.0110           0
      5658 MEMB     50       CHL1     H25      HAL1     0.900000E-01   1.00800           0
      5659 MEMB     50       CHL1     C26      CTL3    -0.270000       12.0110           0
      5660 MEMB     50       CHL1     H26A     HAL3     0.900000E-01   1.00800           0
      5661 MEMB     50       CHL1     H26B     HAL3     0.900000E-01   1.00800           0
      5662 MEMB     50       CHL1     H26C     HAL3     0.900000E-01   1.00800           0
      5663 MEMB     50       CHL1     C27      CTL3    -0.270000       12.0110           0
      5664 MEMB     50       CHL1     H27A     HAL3     0.900000E-01   1.00800           0
      5665 MEMB     50       CHL1     H27B     HAL3     0.900000E-01   1.00800           0
      5666 MEMB     50       CHL1     H27C     HAL3     0.900000E-01   1.00800           0
      5667 MEMB     51       SAPE     N        NH3L    -0.300000       14.0070           0
      5668 MEMB     51       SAPE     HN1      HCL      0.330000       1.00800           0
      5669 MEMB     51       SAPE     HN2      HCL      0.330000       1.00800           0
      5670 MEMB     51       SAPE     HN3      HCL      0.330000       1.00800           0
      5671 MEMB     51       SAPE     C12      CTL2     0.130000       12.0110           0
      5672 MEMB     51       SAPE     H12A     HAL2     0.900000E-01   1.00800           0
      5673 MEMB     51       SAPE     H12B     HAL2     0.900000E-01   1.00800           0
      5674 MEMB     51       SAPE     C11      CTL2    -0.800000E-01   12.0110           0
      5675 MEMB     51       SAPE     H11A     HAL2     0.900000E-01   1.00800           0
      5676 MEMB     51       SAPE     H11B     HAL2     0.900000E-01   1.00800           0
      5677 MEMB     51       SAPE     P        PL        1.50000       30.9740           0
      5678 MEMB     51       SAPE     O13      O2L     -0.780000       15.9994           0
      5679 MEMB     51       SAPE     O14      O2L     -0.780000       15.9994           0
      5680 MEMB     51       SAPE     O12      OSLP    -0.570000       15.9994           0
      5681 MEMB     51       SAPE     O11      OSLP    -0.570000       15.9994           0
      5682 MEMB     51       SAPE     C1       CTL2    -0.800000E-01   12.0110           0
      5683 MEMB     51       SAPE     HA       HAL2     0.900000E-01   1.00800           0
      5684 MEMB     51       SAPE     HB       HAL2     0.900000E-01   1.00800           0
      5685 MEMB     51       SAPE     C2       CTL1     0.170000       12.0110           0
      5686 MEMB     51       SAPE     HS       HAL1     0.900000E-01   1.00800           0
      5687 MEMB     51       SAPE     O21      OSL     -0.490000       15.9994           0
      5688 MEMB     51       SAPE     C21      CL       0.900000       12.0110           0
      5689 MEMB     51       SAPE     O22      OBL     -0.630000       15.9994           0
      5690 MEMB     51       SAPE     C22      CTL2    -0.220000       12.0110           0
      5691 MEMB     51       SAPE     H2R      HAL2     0.900000E-01   1.00800           0
      5692 MEMB     51       SAPE     H2S      HAL2     0.900000E-01   1.00800           0
      5693 MEMB     51       SAPE     C3       CTL2     0.800000E-01   12.0110           0
      5694 MEMB     51       SAPE     HX       HAL2     0.900000E-01   1.00800           0
      5695 MEMB     51       SAPE     HY       HAL2     0.900000E-01   1.00800           0
      5696 MEMB     51       SAPE     O31      OSL     -0.490000       15.9994           0
      5697 MEMB     51       SAPE     C31      CL       0.900000       12.0110           0
      5698 MEMB     51       SAPE     O32      OBL     -0.630000       15.9994           0
      5699 MEMB     51       SAPE     C32      CTL2    -0.220000       12.0110           0
      5700 MEMB     51       SAPE     H2X      HAL2     0.900000E-01   1.00800           0
      5701 MEMB     51       SAPE     H2Y      HAL2     0.900000E-01   1.00800           0
      5702 MEMB     51       SAPE     C23      CTL2    -0.180000       12.0110           0
      5703 MEMB     51       SAPE     H3R      HAL2     0.900000E-01   1.00800           0
      5704 MEMB     51       SAPE     H3S      HAL2     0.900000E-01   1.00800           0
      5705 MEMB     51       SAPE     C24      CTL2    -0.180000       12.0110           0
      5706 MEMB     51       SAPE     H4R      HAL2     0.900000E-01   1.00800           0
      5707 MEMB     51       SAPE     H4S      HAL2     0.900000E-01   1.00800           0
      5708 MEMB     51       SAPE     C25      CEL1    -0.150000       12.0110           0
      5709 MEMB     51       SAPE     H5R      HEL1     0.150000       1.00800           0
      5710 MEMB     51       SAPE     C26      CEL1    -0.150000       12.0110           0
      5711 MEMB     51       SAPE     H6R      HEL1     0.150000       1.00800           0
      5712 MEMB     51       SAPE     C27      CTL2    -0.180000       12.0110           0
      5713 MEMB     51       SAPE     H7R      HAL2     0.900000E-01   1.00800           0
      5714 MEMB     51       SAPE     H7S      HAL2     0.900000E-01   1.00800           0
      5715 MEMB     51       SAPE     C28      CEL1    -0.150000       12.0110           0
      5716 MEMB     51       SAPE     H8R      HEL1     0.150000       1.00800           0
      5717 MEMB     51       SAPE     C29      CEL1    -0.150000       12.0110           0
      5718 MEMB     51       SAPE     H9R      HEL1     0.150000       1.00800           0
      5719 MEMB     51       SAPE     C210     CTL2    -0.180000       12.0110           0
      5720 MEMB     51       SAPE     H10R     HAL2     0.900000E-01   1.00800           0
      5721 MEMB     51       SAPE     H10S     HAL2     0.900000E-01   1.00800           0
      5722 MEMB     51       SAPE     C211     CEL1    -0.150000       12.0110           0
      5723 MEMB     51       SAPE     H11R     HEL1     0.150000       1.00800           0
      5724 MEMB     51       SAPE     C212     CEL1    -0.150000       12.0110           0
      5725 MEMB     51       SAPE     H12R     HEL1     0.150000       1.00800           0
      5726 MEMB     51       SAPE     C213     CTL2    -0.180000       12.0110           0
      5727 MEMB     51       SAPE     H13R     HAL2     0.900000E-01   1.00800           0
      5728 MEMB     51       SAPE     H13S     HAL2     0.900000E-01   1.00800           0
      5729 MEMB     51       SAPE     C214     CEL1    -0.150000       12.0110           0
      5730 MEMB     51       SAPE     H14R     HEL1     0.150000       1.00800           0
      5731 MEMB     51       SAPE     C215     CEL1    -0.150000       12.0110           0
      5732 MEMB     51       SAPE     H15R     HEL1     0.150000       1.00800           0
      5733 MEMB     51       SAPE     C216     CTL2    -0.180000       12.0110           0
      5734 MEMB     51       SAPE     H16R     HAL2     0.900000E-01   1.00800           0
      5735 MEMB     51       SAPE     H16S     HAL2     0.900000E-01   1.00800           0
      5736 MEMB     51       SAPE     C217     CTL2    -0.180000       12.0110           0
      5737 MEMB     51       SAPE     H17R     HAL2     0.900000E-01   1.00800           0
      5738 MEMB     51       SAPE     H17S     HAL2     0.900000E-01   1.00800           0
      5739 MEMB     51       SAPE     C218     CTL2    -0.180000       12.0110           0
      5740 MEMB     51       SAPE     H18R     HAL2     0.900000E-01   1.00800           0
      5741 MEMB     51       SAPE     H18S     HAL2     0.900000E-01   1.00800           0
      5742 MEMB     51       SAPE     C219     CTL2    -0.180000       12.0110           0
      5743 MEMB     51       SAPE     H19R     HAL2     0.900000E-01   1.00800           0
      5744 MEMB     51       SAPE     H19S     HAL2     0.900000E-01   1.00800           0
      5745 MEMB     51       SAPE     C220     CTL3    -0.270000       12.0110           0
      5746 MEMB     51       SAPE     H20R     HAL3     0.900000E-01   1.00800           0
      5747 MEMB     51       SAPE     H20S     HAL3     0.900000E-01   1.00800           0
      5748 MEMB     51       SAPE     H20T     HAL3     0.900000E-01   1.00800           0
      5749 MEMB     51       SAPE     C33      CTL2    -0.180000       12.0110           0
      5750 MEMB     51       SAPE     H3X      HAL2     0.900000E-01   1.00800           0
      5751 MEMB     51       SAPE     H3Y      HAL2     0.900000E-01   1.00800           0
      5752 MEMB     51       SAPE     C34      CTL2    -0.180000       12.0110           0
      5753 MEMB     51       SAPE     H4X      HAL2     0.900000E-01   1.00800           0
      5754 MEMB     51       SAPE     H4Y      HAL2     0.900000E-01   1.00800           0
      5755 MEMB     51       SAPE     C35      CTL2    -0.180000       12.0110           0
      5756 MEMB     51       SAPE     H5X      HAL2     0.900000E-01   1.00800           0
      5757 MEMB     51       SAPE     H5Y      HAL2     0.900000E-01   1.00800           0
      5758 MEMB     51       SAPE     C36      CTL2    -0.180000       12.0110           0
      5759 MEMB     51       SAPE     H6X      HAL2     0.900000E-01   1.00800           0
      5760 MEMB     51       SAPE     H6Y      HAL2     0.900000E-01   1.00800           0
      5761 MEMB     51       SAPE     C37      CTL2    -0.180000       12.0110           0
      5762 MEMB     51       SAPE     H7X      HAL2     0.900000E-01   1.00800           0
      5763 MEMB     51       SAPE     H7Y      HAL2     0.900000E-01   1.00800           0
      5764 MEMB     51       SAPE     C38      CTL2    -0.180000       12.0110           0
      5765 MEMB     51       SAPE     H8X      HAL2     0.900000E-01   1.00800           0
      5766 MEMB     51       SAPE     H8Y      HAL2     0.900000E-01   1.00800           0
      5767 MEMB     51       SAPE     C39      CTL2    -0.180000       12.0110           0
      5768 MEMB     51       SAPE     H9X      HAL2     0.900000E-01   1.00800           0
      5769 MEMB     51       SAPE     H9Y      HAL2     0.900000E-01   1.00800           0
      5770 MEMB     51       SAPE     C310     CTL2    -0.180000       12.0110           0
      5771 MEMB     51       SAPE     H10X     HAL2     0.900000E-01   1.00800           0
      5772 MEMB     51       SAPE     H10Y     HAL2     0.900000E-01   1.00800           0
      5773 MEMB     51       SAPE     C311     CTL2    -0.180000       12.0110           0
      5774 MEMB     51       SAPE     H11X     HAL2     0.900000E-01   1.00800           0
      5775 MEMB     51       SAPE     H11Y     HAL2     0.900000E-01   1.00800           0
      5776 MEMB     51       SAPE     C312     CTL2    -0.180000       12.0110           0
      5777 MEMB     51       SAPE     H12X     HAL2     0.900000E-01   1.00800           0
      5778 MEMB     51       SAPE     H12Y     HAL2     0.900000E-01   1.00800           0
      5779 MEMB     51       SAPE     C313     CTL2    -0.180000       12.0110           0
      5780 MEMB     51       SAPE     H13X     HAL2     0.900000E-01   1.00800           0
      5781 MEMB     51       SAPE     H13Y     HAL2     0.900000E-01   1.00800           0
      5782 MEMB     51       SAPE     C314     CTL2    -0.180000       12.0110           0
      5783 MEMB     51       SAPE     H14X     HAL2     0.900000E-01   1.00800           0
      5784 MEMB     51       SAPE     H14Y     HAL2     0.900000E-01   1.00800           0
      5785 MEMB     51       SAPE     C315     CTL2    -0.180000       12.0110           0
      5786 MEMB     51       SAPE     H15X     HAL2     0.900000E-01   1.00800           0
      5787 MEMB     51       SAPE     H15Y     HAL2     0.900000E-01   1.00800           0
      5788 MEMB     51       SAPE     C316     CTL2    -0.180000       12.0110           0
      5789 MEMB     51       SAPE     H16X     HAL2     0.900000E-01   1.00800           0
      5790 MEMB     51       SAPE     H16Y     HAL2     0.900000E-01   1.00800           0
      5791 MEMB     51       SAPE     C317     CTL2    -0.180000       12.0110           0
      5792 MEMB     51       SAPE     H17X     HAL2     0.900000E-01   1.00800           0
      5793 MEMB     51       SAPE     H17Y     HAL2     0.900000E-01   1.00800           0
      5794 MEMB     51       SAPE     C318     CTL3    -0.270000       12.0110           0
      5795 MEMB     51       SAPE     H18X     HAL3     0.900000E-01   1.00800           0
      5796 MEMB     51       SAPE     H18Y     HAL3     0.900000E-01   1.00800           0
      5797 MEMB     51       SAPE     H18Z     HAL3     0.900000E-01   1.00800           0
      5798 MEMB     52       CHL1     C3       CRL1     0.140000       12.0110           0
      5799 MEMB     52       CHL1     H3       HGA1     0.900000E-01   1.00800           0
      5800 MEMB     52       CHL1     O3       OHL     -0.660000       15.9994           0
      5801 MEMB     52       CHL1     H3'      HOL      0.430000       1.00800           0
      5802 MEMB     52       CHL1     C4       CRL2    -0.180000       12.0110           0
      5803 MEMB     52       CHL1     H4A      HGA2     0.900000E-01   1.00800           0
      5804 MEMB     52       CHL1     H4B      HGA2     0.900000E-01   1.00800           0
      5805 MEMB     52       CHL1     C5       CEL1      0.00000       12.0110           0
      5806 MEMB     52       CHL1     C6       CEL1    -0.150000       12.0110           0
      5807 MEMB     52       CHL1     H6       HEL1     0.150000       1.00800           0
      5808 MEMB     52       CHL1     C7       CRL2    -0.180000       12.0110           0
      5809 MEMB     52       CHL1     H7A      HGA2     0.900000E-01   1.00800           0
      5810 MEMB     52       CHL1     H7B      HGA2     0.900000E-01   1.00800           0
      5811 MEMB     52       CHL1     C8       CRL1    -0.900000E-01   12.0110           0
      5812 MEMB     52       CHL1     H8       HGA1     0.900000E-01   1.00800           0
      5813 MEMB     52       CHL1     C14      CRL1    -0.900000E-01   12.0110           0
      5814 MEMB     52       CHL1     H14      HGA1     0.900000E-01   1.00800           0
      5815 MEMB     52       CHL1     C15      CRL2    -0.180000       12.0110           0
      5816 MEMB     52       CHL1     H15A     HGA2     0.900000E-01   1.00800           0
      5817 MEMB     52       CHL1     H15B     HGA2     0.900000E-01   1.00800           0
      5818 MEMB     52       CHL1     C16      CRL2    -0.180000       12.0110           0
      5819 MEMB     52       CHL1     H16A     HGA2     0.900000E-01   1.00800           0
      5820 MEMB     52       CHL1     H16B     HGA2     0.900000E-01   1.00800           0
      5821 MEMB     52       CHL1     C17      CRL1    -0.900000E-01   12.0110           0
      5822 MEMB     52       CHL1     H17      HGA1     0.900000E-01   1.00800           0
      5823 MEMB     52       CHL1     C13      CRL1      0.00000       12.0110           0
      5824 MEMB     52       CHL1     C18      CTL3    -0.270000       12.0110           0
      5825 MEMB     52       CHL1     H18A     HAL3     0.900000E-01   1.00800           0
      5826 MEMB     52       CHL1     H18B     HAL3     0.900000E-01   1.00800           0
      5827 MEMB     52       CHL1     H18C     HAL3     0.900000E-01   1.00800           0
      5828 MEMB     52       CHL1     C12      CRL2    -0.180000       12.0110           0
      5829 MEMB     52       CHL1     H12A     HGA2     0.900000E-01   1.00800           0
      5830 MEMB     52       CHL1     H12B     HGA2     0.900000E-01   1.00800           0
      5831 MEMB     52       CHL1     C11      CRL2    -0.180000       12.0110           0
      5832 MEMB     52       CHL1     H11A     HGA2     0.900000E-01   1.00800           0
      5833 MEMB     52       CHL1     H11B     HGA2     0.900000E-01   1.00800           0
      5834 MEMB     52       CHL1     C9       CRL1    -0.900000E-01   12.0110           0
      5835 MEMB     52       CHL1     H9       HGA1     0.900000E-01   1.00800           0
      5836 MEMB     52       CHL1     C10      CRL1      0.00000       12.0110           0
      5837 MEMB     52       CHL1     C19      CTL3    -0.270000       12.0110           0
      5838 MEMB     52       CHL1     H19A     HAL3     0.900000E-01   1.00800           0
      5839 MEMB     52       CHL1     H19B     HAL3     0.900000E-01   1.00800           0
      5840 MEMB     52       CHL1     H19C     HAL3     0.900000E-01   1.00800           0
      5841 MEMB     52       CHL1     C1       CRL2    -0.180000       12.0110           0
      5842 MEMB     52       CHL1     H1A      HGA2     0.900000E-01   1.00800           0
      5843 MEMB     52       CHL1     H1B      HGA2     0.900000E-01   1.00800           0
      5844 MEMB     52       CHL1     C2       CRL2    -0.180000       12.0110           0
      5845 MEMB     52       CHL1     H2A      HGA2     0.900000E-01   1.00800           0
      5846 MEMB     52       CHL1     H2B      HGA2     0.900000E-01   1.00800           0
      5847 MEMB     52       CHL1     C20      CTL1    -0.900000E-01   12.0110           0
      5848 MEMB     52       CHL1     H20      HAL1     0.900000E-01   1.00800           0
      5849 MEMB     52       CHL1     C21      CTL3    -0.270000       12.0110           0
      5850 MEMB     52       CHL1     H21A     HAL3     0.900000E-01   1.00800           0
      5851 MEMB     52       CHL1     H21B     HAL3     0.900000E-01   1.00800           0
      5852 MEMB     52       CHL1     H21C     HAL3     0.900000E-01   1.00800           0
      5853 MEMB     52       CHL1     C22      CTL2    -0.180000       12.0110           0
      5854 MEMB     52       CHL1     H22A     HAL2     0.900000E-01   1.00800           0
      5855 MEMB     52       CHL1     H22B     HAL2     0.900000E-01   1.00800           0
      5856 MEMB     52       CHL1     C23      CTL2    -0.180000       12.0110           0
      5857 MEMB     52       CHL1     H23A     HAL2     0.900000E-01   1.00800           0
      5858 MEMB     52       CHL1     H23B     HAL2     0.900000E-01   1.00800           0
      5859 MEMB     52       CHL1     C24      CTL2    -0.180000       12.0110           0
      5860 MEMB     52       CHL1     H24A     HAL2     0.900000E-01   1.00800           0
      5861 MEMB     52       CHL1     H24B     HAL2     0.900000E-01   1.00800           0
      5862 MEMB     52       CHL1     C25      CTL1    -0.900000E-01   12.0110           0
      5863 MEMB     52       CHL1     H25      HAL1     0.900000E-01   1.00800           0
      5864 MEMB     52       CHL1     C26      CTL3    -0.270000       12.0110           0
      5865 MEMB     52       CHL1     H26A     HAL3     0.900000E-01   1.00800           0
      5866 MEMB     52       CHL1     H26B     HAL3     0.900000E-01   1.00800           0
      5867 MEMB     52       CHL1     H26C     HAL3     0.900000E-01   1.00800           0
      5868 MEMB     52       CHL1     C27      CTL3    -0.270000       12.0110           0
      5869 MEMB     52       CHL1     H27A     HAL3     0.900000E-01   1.00800           0
      5870 MEMB     52       CHL1     H27B     HAL3     0.900000E-01   1.00800           0
      5871 MEMB     52       CHL1     H27C     HAL3     0.900000E-01   1.00800           0
      5872 MEMB     53       SAPS     N        NH3L    -0.300000       14.0070           0
      5873 MEMB     53       SAPS     HN1      HCL      0.330000       1.00800           0
      5874 MEMB     53       SAPS     HN2      HCL      0.330000       1.00800           0
      5875 MEMB     53       SAPS     HN3      HCL      0.330000       1.00800           0
      5876 MEMB     53       SAPS     C12      CTL1     0.210000       12.0110           0
      5877 MEMB     53       SAPS     H12A     HBL      0.100000       1.00800           0
      5878 MEMB     53       SAPS     C13      CCL      0.340000       12.0110           0
      5879 MEMB     53       SAPS     O13A     OCL     -0.670000       15.9994           0
      5880 MEMB     53       SAPS     O13B     OCL     -0.670000       15.9994           0
      5881 MEMB     53       SAPS     C11      CTL2    -0.800000E-01   12.0110           0
      5882 MEMB     53       SAPS     H11A     HAL2     0.900000E-01   1.00800           0
      5883 MEMB     53       SAPS     H11B     HAL2     0.900000E-01   1.00800           0
      5884 MEMB     53       SAPS     P        PL        1.50000       30.9740           0
      5885 MEMB     53       SAPS     O13      O2L     -0.780000       15.9994           0
      5886 MEMB     53       SAPS     O14      O2L     -0.780000       15.9994           0
      5887 MEMB     53       SAPS     O12      OSLP    -0.570000       15.9994           0
      5888 MEMB     53       SAPS     O11      OSLP    -0.570000       15.9994           0
      5889 MEMB     53       SAPS     C1       CTL2    -0.800000E-01   12.0110           0
      5890 MEMB     53       SAPS     HA       HAL2     0.900000E-01   1.00800           0
      5891 MEMB     53       SAPS     HB       HAL2     0.900000E-01   1.00800           0
      5892 MEMB     53       SAPS     C2       CTL1     0.170000       12.0110           0
      5893 MEMB     53       SAPS     HS       HAL1     0.900000E-01   1.00800           0
      5894 MEMB     53       SAPS     O21      OSL     -0.490000       15.9994           0
      5895 MEMB     53       SAPS     C21      CL       0.900000       12.0110           0
      5896 MEMB     53       SAPS     O22      OBL     -0.630000       15.9994           0
      5897 MEMB     53       SAPS     C22      CTL2    -0.220000       12.0110           0
      5898 MEMB     53       SAPS     H2R      HAL2     0.900000E-01   1.00800           0
      5899 MEMB     53       SAPS     H2S      HAL2     0.900000E-01   1.00800           0
      5900 MEMB     53       SAPS     C3       CTL2     0.800000E-01   12.0110           0
      5901 MEMB     53       SAPS     HX       HAL2     0.900000E-01   1.00800           0
      5902 MEMB     53       SAPS     HY       HAL2     0.900000E-01   1.00800           0
      5903 MEMB     53       SAPS     O31      OSL     -0.490000       15.9994           0
      5904 MEMB     53       SAPS     C31      CL       0.900000       12.0110           0
      5905 MEMB     53       SAPS     O32      OBL     -0.630000       15.9994           0
      5906 MEMB     53       SAPS     C32      CTL2    -0.220000       12.0110           0
      5907 MEMB     53       SAPS     H2X      HAL2     0.900000E-01   1.00800           0
      5908 MEMB     53       SAPS     H2Y      HAL2     0.900000E-01   1.00800           0
      5909 MEMB     53       SAPS     C23      CTL2    -0.180000       12.0110           0
      5910 MEMB     53       SAPS     H3R      HAL2     0.900000E-01   1.00800           0
      5911 MEMB     53       SAPS     H3S      HAL2     0.900000E-01   1.00800           0
      5912 MEMB     53       SAPS     C24      CTL2    -0.180000       12.0110           0
      5913 MEMB     53       SAPS     H4R      HAL2     0.900000E-01   1.00800           0
      5914 MEMB     53       SAPS     H4S      HAL2     0.900000E-01   1.00800           0
      5915 MEMB     53       SAPS     C25      CEL1    -0.150000       12.0110           0
      5916 MEMB     53       SAPS     H5R      HEL1     0.150000       1.00800           0
      5917 MEMB     53       SAPS     C26      CEL1    -0.150000       12.0110           0
      5918 MEMB     53       SAPS     H6R      HEL1     0.150000       1.00800           0
      5919 MEMB     53       SAPS     C27      CTL2    -0.180000       12.0110           0
      5920 MEMB     53       SAPS     H7R      HAL2     0.900000E-01   1.00800           0
      5921 MEMB     53       SAPS     H7S      HAL2     0.900000E-01   1.00800           0
      5922 MEMB     53       SAPS     C28      CEL1    -0.150000       12.0110           0
      5923 MEMB     53       SAPS     H8R      HEL1     0.150000       1.00800           0
      5924 MEMB     53       SAPS     C29      CEL1    -0.150000       12.0110           0
      5925 MEMB     53       SAPS     H9R      HEL1     0.150000       1.00800           0
      5926 MEMB     53       SAPS     C210     CTL2    -0.180000       12.0110           0
      5927 MEMB     53       SAPS     H10R     HAL2     0.900000E-01   1.00800           0
      5928 MEMB     53       SAPS     H10S     HAL2     0.900000E-01   1.00800           0
      5929 MEMB     53       SAPS     C211     CEL1    -0.150000       12.0110           0
      5930 MEMB     53       SAPS     H11R     HEL1     0.150000       1.00800           0
      5931 MEMB     53       SAPS     C212     CEL1    -0.150000       12.0110           0
      5932 MEMB     53       SAPS     H12R     HEL1     0.150000       1.00800           0
      5933 MEMB     53       SAPS     C213     CTL2    -0.180000       12.0110           0
      5934 MEMB     53       SAPS     H13R     HAL2     0.900000E-01   1.00800           0
      5935 MEMB     53       SAPS     H13S     HAL2     0.900000E-01   1.00800           0
      5936 MEMB     53       SAPS     C214     CEL1    -0.150000       12.0110           0
      5937 MEMB     53       SAPS     H14R     HEL1     0.150000       1.00800           0
      5938 MEMB     53       SAPS     C215     CEL1    -0.150000       12.0110           0
      5939 MEMB     53       SAPS     H15R     HEL1     0.150000       1.00800           0
      5940 MEMB     53       SAPS     C216     CTL2    -0.180000       12.0110           0
      5941 MEMB     53       SAPS     H16R     HAL2     0.900000E-01   1.00800           0
      5942 MEMB     53       SAPS     H16S     HAL2     0.900000E-01   1.00800           0
      5943 MEMB     53       SAPS     C217     CTL2    -0.180000       12.0110           0
      5944 MEMB     53       SAPS     H17R     HAL2     0.900000E-01   1.00800           0
      5945 MEMB     53       SAPS     H17S     HAL2     0.900000E-01   1.00800           0
      5946 MEMB     53       SAPS     C218     CTL2    -0.180000       12.0110           0
      5947 MEMB     53       SAPS     H18R     HAL2     0.900000E-01   1.00800           0
      5948 MEMB     53       SAPS     H18S     HAL2     0.900000E-01   1.00800           0
      5949 MEMB     53       SAPS     C219     CTL2    -0.180000       12.0110           0
      5950 MEMB     53       SAPS     H19R     HAL2     0.900000E-01   1.00800           0
      5951 MEMB     53       SAPS     H19S     HAL2     0.900000E-01   1.00800           0
      5952 MEMB     53       SAPS     C220     CTL3    -0.270000       12.0110           0
      5953 MEMB     53       SAPS     H20R     HAL3     0.900000E-01   1.00800           0
      5954 MEMB     53       SAPS     H20S     HAL3     0.900000E-01   1.00800           0
      5955 MEMB     53       SAPS     H20T     HAL3     0.900000E-01   1.00800           0
      5956 MEMB     53       SAPS     C33      CTL2    -0.180000       12.0110           0
      5957 MEMB     53       SAPS     H3X      HAL2     0.900000E-01   1.00800           0
      5958 MEMB     53       SAPS     H3Y      HAL2     0.900000E-01   1.00800           0
      5959 MEMB     53       SAPS     C34      CTL2    -0.180000       12.0110           0
      5960 MEMB     53       SAPS     H4X      HAL2     0.900000E-01   1.00800           0
      5961 MEMB     53       SAPS     H4Y      HAL2     0.900000E-01   1.00800           0
      5962 MEMB     53       SAPS     C35      CTL2    -0.180000       12.0110           0
      5963 MEMB     53       SAPS     H5X      HAL2     0.900000E-01   1.00800           0
      5964 MEMB     53       SAPS     H5Y      HAL2     0.900000E-01   1.00800           0
      5965 MEMB     53       SAPS     C36      CTL2    -0.180000       12.0110           0
      5966 MEMB     53       SAPS     H6X      HAL2     0.900000E-01   1.00800           0
      5967 MEMB     53       SAPS     H6Y      HAL2     0.900000E-01   1.00800           0
      5968 MEMB     53       SAPS     C37      CTL2    -0.180000       12.0110           0
      5969 MEMB     53       SAPS     H7X      HAL2     0.900000E-01   1.00800           0
      5970 MEMB     53       SAPS     H7Y      HAL2     0.900000E-01   1.00800           0
      5971 MEMB     53       SAPS     C38      CTL2    -0.180000       12.0110           0
      5972 MEMB     53       SAPS     H8X      HAL2     0.900000E-01   1.00800           0
      5973 MEMB     53       SAPS     H8Y      HAL2     0.900000E-01   1.00800           0
      5974 MEMB     53       SAPS     C39      CTL2    -0.180000       12.0110           0
      5975 MEMB     53       SAPS     H9X      HAL2     0.900000E-01   1.00800           0
      5976 MEMB     53       SAPS     H9Y      HAL2     0.900000E-01   1.00800           0
      5977 MEMB     53       SAPS     C310     CTL2    -0.180000       12.0110           0
      5978 MEMB     53       SAPS     H10X     HAL2     0.900000E-01   1.00800           0
      5979 MEMB     53       SAPS     H10Y     HAL2     0.900000E-01   1.00800           0
      5980 MEMB     53       SAPS     C311     CTL2    -0.180000       12.0110           0
      5981 MEMB     53       SAPS     H11X     HAL2     0.900000E-01   1.00800           0
      5982 MEMB     53       SAPS     H11Y     HAL2     0.900000E-01   1.00800           0
      5983 MEMB     53       SAPS     C312     CTL2    -0.180000       12.0110           0
      5984 MEMB     53       SAPS     H12X     HAL2     0.900000E-01   1.00800           0
      5985 MEMB     53       SAPS     H12Y     HAL2     0.900000E-01   1.00800           0
      5986 MEMB     53       SAPS     C313     CTL2    -0.180000       12.0110           0
      5987 MEMB     53       SAPS     H13X     HAL2     0.900000E-01   1.00800           0
      5988 MEMB     53       SAPS     H13Y     HAL2     0.900000E-01   1.00800           0
      5989 MEMB     53       SAPS     C314     CTL2    -0.180000       12.0110           0
      5990 MEMB     53       SAPS     H14X     HAL2     0.900000E-01   1.00800           0
      5991 MEMB     53       SAPS     H14Y     HAL2     0.900000E-01   1.00800           0
      5992 MEMB     53       SAPS     C315     CTL2    -0.180000       12.0110           0
      5993 MEMB     53       SAPS     H15X     HAL2     0.900000E-01   1.00800           0
      5994 MEMB     53       SAPS     H15Y     HAL2     0.900000E-01   1.00800           0
      5995 MEMB     53       SAPS     C316     CTL2    -0.180000       12.0110           0
      5996 MEMB     53       SAPS     H16X     HAL2     0.900000E-01   1.00800           0
      5997 MEMB     53       SAPS     H16Y     HAL2     0.900000E-01   1.00800           0
      5998 MEMB     53       SAPS     C317     CTL2    -0.180000       12.0110           0
      5999 MEMB     53       SAPS     H17X     HAL2     0.900000E-01   1.00800           0
      6000 MEMB     53       SAPS     H17Y     HAL2     0.900000E-01   1.00800           0
      6001 MEMB     53       SAPS     C318     CTL3    -0.270000       12.0110           0
      6002 MEMB     53       SAPS     H18X     HAL3     0.900000E-01   1.00800           0
      6003 MEMB     53       SAPS     H18Y     HAL3     0.900000E-01   1.00800           0
      6004 MEMB     53       SAPS     H18Z     HAL3     0.900000E-01   1.00800           0
      6005 MEMB     54       CHL1     C3       CRL1     0.140000       12.0110           0
      6006 MEMB     54       CHL1     H3       HGA1     0.900000E-01   1.00800           0
      6007 MEMB     54       CHL1     O3       OHL     -0.660000       15.9994           0
      6008 MEMB     54       CHL1     H3'      HOL      0.430000       1.00800           0
      6009 MEMB     54       CHL1     C4       CRL2    -0.180000       12.0110           0
      6010 MEMB     54       CHL1     H4A      HGA2     0.900000E-01   1.00800           0
      6011 MEMB     54       CHL1     H4B      HGA2     0.900000E-01   1.00800           0
      6012 MEMB     54       CHL1     C5       CEL1      0.00000       12.0110           0
      6013 MEMB     54       CHL1     C6       CEL1    -0.150000       12.0110           0
      6014 MEMB     54       CHL1     H6       HEL1     0.150000       1.00800           0
      6015 MEMB     54       CHL1     C7       CRL2    -0.180000       12.0110           0
      6016 MEMB     54       CHL1     H7A      HGA2     0.900000E-01   1.00800           0
      6017 MEMB     54       CHL1     H7B      HGA2     0.900000E-01   1.00800           0
      6018 MEMB     54       CHL1     C8       CRL1    -0.900000E-01   12.0110           0
      6019 MEMB     54       CHL1     H8       HGA1     0.900000E-01   1.00800           0
      6020 MEMB     54       CHL1     C14      CRL1    -0.900000E-01   12.0110           0
      6021 MEMB     54       CHL1     H14      HGA1     0.900000E-01   1.00800           0
      6022 MEMB     54       CHL1     C15      CRL2    -0.180000       12.0110           0
      6023 MEMB     54       CHL1     H15A     HGA2     0.900000E-01   1.00800           0
      6024 MEMB     54       CHL1     H15B     HGA2     0.900000E-01   1.00800           0
      6025 MEMB     54       CHL1     C16      CRL2    -0.180000       12.0110           0
      6026 MEMB     54       CHL1     H16A     HGA2     0.900000E-01   1.00800           0
      6027 MEMB     54       CHL1     H16B     HGA2     0.900000E-01   1.00800           0
      6028 MEMB     54       CHL1     C17      CRL1    -0.900000E-01   12.0110           0
      6029 MEMB     54       CHL1     H17      HGA1     0.900000E-01   1.00800           0
      6030 MEMB     54       CHL1     C13      CRL1      0.00000       12.0110           0
      6031 MEMB     54       CHL1     C18      CTL3    -0.270000       12.0110           0
      6032 MEMB     54       CHL1     H18A     HAL3     0.900000E-01   1.00800           0
      6033 MEMB     54       CHL1     H18B     HAL3     0.900000E-01   1.00800           0
      6034 MEMB     54       CHL1     H18C     HAL3     0.900000E-01   1.00800           0
      6035 MEMB     54       CHL1     C12      CRL2    -0.180000       12.0110           0
      6036 MEMB     54       CHL1     H12A     HGA2     0.900000E-01   1.00800           0
      6037 MEMB     54       CHL1     H12B     HGA2     0.900000E-01   1.00800           0
      6038 MEMB     54       CHL1     C11      CRL2    -0.180000       12.0110           0
      6039 MEMB     54       CHL1     H11A     HGA2     0.900000E-01   1.00800           0
      6040 MEMB     54       CHL1     H11B     HGA2     0.900000E-01   1.00800           0
      6041 MEMB     54       CHL1     C9       CRL1    -0.900000E-01   12.0110           0
      6042 MEMB     54       CHL1     H9       HGA1     0.900000E-01   1.00800           0
      6043 MEMB     54       CHL1     C10      CRL1      0.00000       12.0110           0
      6044 MEMB     54       CHL1     C19      CTL3    -0.270000       12.0110           0
      6045 MEMB     54       CHL1     H19A     HAL3     0.900000E-01   1.00800           0
      6046 MEMB     54       CHL1     H19B     HAL3     0.900000E-01   1.00800           0
      6047 MEMB     54       CHL1     H19C     HAL3     0.900000E-01   1.00800           0
      6048 MEMB     54       CHL1     C1       CRL2    -0.180000       12.0110           0
      6049 MEMB     54       CHL1     H1A      HGA2     0.900000E-01   1.00800           0
      6050 MEMB     54       CHL1     H1B      HGA2     0.900000E-01   1.00800           0
      6051 MEMB     54       CHL1     C2       CRL2    -0.180000       12.0110           0
      6052 MEMB     54       CHL1     H2A      HGA2     0.900000E-01   1.00800           0
      6053 MEMB     54       CHL1     H2B      HGA2     0.900000E-01   1.00800           0
      6054 MEMB     54       CHL1     C20      CTL1    -0.900000E-01   12.0110           0
      6055 MEMB     54       CHL1     H20      HAL1     0.900000E-01   1.00800           0
      6056 MEMB     54       CHL1     C21      CTL3    -0.270000       12.0110           0
      6057 MEMB     54       CHL1     H21A     HAL3     0.900000E-01   1.00800           0
      6058 MEMB     54       CHL1     H21B     HAL3     0.900000E-01   1.00800           0
      6059 MEMB     54       CHL1     H21C     HAL3     0.900000E-01   1.00800           0
      6060 MEMB     54       CHL1     C22      CTL2    -0.180000       12.0110           0
      6061 MEMB     54       CHL1     H22A     HAL2     0.900000E-01   1.00800           0
      6062 MEMB     54       CHL1     H22B     HAL2     0.900000E-01   1.00800           0
      6063 MEMB     54       CHL1     C23      CTL2    -0.180000       12.0110           0
      6064 MEMB     54       CHL1     H23A     HAL2     0.900000E-01   1.00800           0
      6065 MEMB     54       CHL1     H23B     HAL2     0.900000E-01   1.00800           0
      6066 MEMB     54       CHL1     C24      CTL2    -0.180000       12.0110           0
      6067 MEMB     54       CHL1     H24A     HAL2     0.900000E-01   1.00800           0
      6068 MEMB     54       CHL1     H24B     HAL2     0.900000E-01   1.00800           0
      6069 MEMB     54       CHL1     C25      CTL1    -0.900000E-01   12.0110           0
      6070 MEMB     54       CHL1     H25      HAL1     0.900000E-01   1.00800           0
      6071 MEMB     54       CHL1     C26      CTL3    -0.270000       12.0110           0
      6072 MEMB     54       CHL1     H26A     HAL3     0.900000E-01   1.00800           0
      6073 MEMB     54       CHL1     H26B     HAL3     0.900000E-01   1.00800           0
      6074 MEMB     54       CHL1     H26C     HAL3     0.900000E-01   1.00800           0
      6075 MEMB     54       CHL1     C27      CTL3    -0.270000       12.0110           0
      6076 MEMB     54       CHL1     H27A     HAL3     0.900000E-01   1.00800           0
      6077 MEMB     54       CHL1     H27B     HAL3     0.900000E-01   1.00800           0
      6078 MEMB     54       CHL1     H27C     HAL3     0.900000E-01   1.00800           0
      6079 MEMB     55       CHL1     C3       CRL1     0.140000       12.0110           0
      6080 MEMB     55       CHL1     H3       HGA1     0.900000E-01   1.00800           0
      6081 MEMB     55       CHL1     O3       OHL     -0.660000       15.9994           0
      6082 MEMB     55       CHL1     H3'      HOL      0.430000       1.00800           0
      6083 MEMB     55       CHL1     C4       CRL2    -0.180000       12.0110           0
      6084 MEMB     55       CHL1     H4A      HGA2     0.900000E-01   1.00800           0
      6085 MEMB     55       CHL1     H4B      HGA2     0.900000E-01   1.00800           0
      6086 MEMB     55       CHL1     C5       CEL1      0.00000       12.0110           0
      6087 MEMB     55       CHL1     C6       CEL1    -0.150000       12.0110           0
      6088 MEMB     55       CHL1     H6       HEL1     0.150000       1.00800           0
      6089 MEMB     55       CHL1     C7       CRL2    -0.180000       12.0110           0
      6090 MEMB     55       CHL1     H7A      HGA2     0.900000E-01   1.00800           0
      6091 MEMB     55       CHL1     H7B      HGA2     0.900000E-01   1.00800           0
      6092 MEMB     55       CHL1     C8       CRL1    -0.900000E-01   12.0110           0
      6093 MEMB     55       CHL1     H8       HGA1     0.900000E-01   1.00800           0
      6094 MEMB     55       CHL1     C14      CRL1    -0.900000E-01   12.0110           0
      6095 MEMB     55       CHL1     H14      HGA1     0.900000E-01   1.00800           0
      6096 MEMB     55       CHL1     C15      CRL2    -0.180000       12.0110           0
      6097 MEMB     55       CHL1     H15A     HGA2     0.900000E-01   1.00800           0
      6098 MEMB     55       CHL1     H15B     HGA2     0.900000E-01   1.00800           0
      6099 MEMB     55       CHL1     C16      CRL2    -0.180000       12.0110           0
      6100 MEMB     55       CHL1     H16A     HGA2     0.900000E-01   1.00800           0
      6101 MEMB     55       CHL1     H16B     HGA2     0.900000E-01   1.00800           0
      6102 MEMB     55       CHL1     C17      CRL1    -0.900000E-01   12.0110           0
      6103 MEMB     55       CHL1     H17      HGA1     0.900000E-01   1.00800           0
      6104 MEMB     55       CHL1     C13      CRL1      0.00000       12.0110           0
      6105 MEMB     55       CHL1     C18      CTL3    -0.270000       12.0110           0
      6106 MEMB     55       CHL1     H18A     HAL3     0.900000E-01   1.00800           0
      6107 MEMB     55       CHL1     H18B     HAL3     0.900000E-01   1.00800           0
      6108 MEMB     55       CHL1     H18C     HAL3     0.900000E-01   1.00800           0
      6109 MEMB     55       CHL1     C12      CRL2    -0.180000       12.0110           0
      6110 MEMB     55       CHL1     H12A     HGA2     0.900000E-01   1.00800           0
      6111 MEMB     55       CHL1     H12B     HGA2     0.900000E-01   1.00800           0
      6112 MEMB     55       CHL1     C11      CRL2    -0.180000       12.0110           0
      6113 MEMB     55       CHL1     H11A     HGA2     0.900000E-01   1.00800           0
      6114 MEMB     55       CHL1     H11B     HGA2     0.900000E-01   1.00800           0
      6115 MEMB     55       CHL1     C9       CRL1    -0.900000E-01   12.0110           0
      6116 MEMB     55       CHL1     H9       HGA1     0.900000E-01   1.00800           0
      6117 MEMB     55       CHL1     C10      CRL1      0.00000       12.0110           0
      6118 MEMB     55       CHL1     C19      CTL3    -0.270000       12.0110           0
      6119 MEMB     55       CHL1     H19A     HAL3     0.900000E-01   1.00800           0
      6120 MEMB     55       CHL1     H19B     HAL3     0.900000E-01   1.00800           0
      6121 MEMB     55       CHL1     H19C     HAL3     0.900000E-01   1.00800           0
      6122 MEMB     55       CHL1     C1       CRL2    -0.180000       12.0110           0
      6123 MEMB     55       CHL1     H1A      HGA2     0.900000E-01   1.00800           0
      6124 MEMB     55       CHL1     H1B      HGA2     0.900000E-01   1.00800           0
      6125 MEMB     55       CHL1     C2       CRL2    -0.180000       12.0110           0
      6126 MEMB     55       CHL1     H2A      HGA2     0.900000E-01   1.00800           0
      6127 MEMB     55       CHL1     H2B      HGA2     0.900000E-01   1.00800           0
      6128 MEMB     55       CHL1     C20      CTL1    -0.900000E-01   12.0110           0
      6129 MEMB     55       CHL1     H20      HAL1     0.900000E-01   1.00800           0
      6130 MEMB     55       CHL1     C21      CTL3    -0.270000       12.0110           0
      6131 MEMB     55       CHL1     H21A     HAL3     0.900000E-01   1.00800           0
      6132 MEMB     55       CHL1     H21B     HAL3     0.900000E-01   1.00800           0
      6133 MEMB     55       CHL1     H21C     HAL3     0.900000E-01   1.00800           0
      6134 MEMB     55       CHL1     C22      CTL2    -0.180000       12.0110           0
      6135 MEMB     55       CHL1     H22A     HAL2     0.900000E-01   1.00800           0
      6136 MEMB     55       CHL1     H22B     HAL2     0.900000E-01   1.00800           0
      6137 MEMB     55       CHL1     C23      CTL2    -0.180000       12.0110           0
      6138 MEMB     55       CHL1     H23A     HAL2     0.900000E-01   1.00800           0
      6139 MEMB     55       CHL1     H23B     HAL2     0.900000E-01   1.00800           0
      6140 MEMB     55       CHL1     C24      CTL2    -0.180000       12.0110           0
      6141 MEMB     55       CHL1     H24A     HAL2     0.900000E-01   1.00800           0
      6142 MEMB     55       CHL1     H24B     HAL2     0.900000E-01   1.00800           0
      6143 MEMB     55       CHL1     C25      CTL1    -0.900000E-01   12.0110           0
      6144 MEMB     55       CHL1     H25      HAL1     0.900000E-01   1.00800           0
      6145 MEMB     55       CHL1     C26      CTL3    -0.270000       12.0110           0
      6146 MEMB     55       CHL1     H26A     HAL3     0.900000E-01   1.00800           0
      6147 MEMB     55       CHL1     H26B     HAL3     0.900000E-01   1.00800           0
      6148 MEMB     55       CHL1     H26C     HAL3     0.900000E-01   1.00800           0
      6149 MEMB     55       CHL1     C27      CTL3    -0.270000       12.0110           0
      6150 MEMB     55       CHL1     H27A     HAL3     0.900000E-01   1.00800           0
      6151 MEMB     55       CHL1     H27B     HAL3     0.900000E-01   1.00800           0
      6152 MEMB     55       CHL1     H27C     HAL3     0.900000E-01   1.00800           0
      6153 MEMB     56       SAPE     N        NH3L    -0.300000       14.0070           0
      6154 MEMB     56       SAPE     HN1      HCL      0.330000       1.00800           0
      6155 MEMB     56       SAPE     HN2      HCL      0.330000       1.00800           0
      6156 MEMB     56       SAPE     HN3      HCL      0.330000       1.00800           0
      6157 MEMB     56       SAPE     C12      CTL2     0.130000       12.0110           0
      6158 MEMB     56       SAPE     H12A     HAL2     0.900000E-01   1.00800           0
      6159 MEMB     56       SAPE     H12B     HAL2     0.900000E-01   1.00800           0
      6160 MEMB     56       SAPE     C11      CTL2    -0.800000E-01   12.0110           0
      6161 MEMB     56       SAPE     H11A     HAL2     0.900000E-01   1.00800           0
      6162 MEMB     56       SAPE     H11B     HAL2     0.900000E-01   1.00800           0
      6163 MEMB     56       SAPE     P        PL        1.50000       30.9740           0
      6164 MEMB     56       SAPE     O13      O2L     -0.780000       15.9994           0
      6165 MEMB     56       SAPE     O14      O2L     -0.780000       15.9994           0
      6166 MEMB     56       SAPE     O12      OSLP    -0.570000       15.9994           0
      6167 MEMB     56       SAPE     O11      OSLP    -0.570000       15.9994           0
      6168 MEMB     56       SAPE     C1       CTL2    -0.800000E-01   12.0110           0
      6169 MEMB     56       SAPE     HA       HAL2     0.900000E-01   1.00800           0
      6170 MEMB     56       SAPE     HB       HAL2     0.900000E-01   1.00800           0
      6171 MEMB     56       SAPE     C2       CTL1     0.170000       12.0110           0
      6172 MEMB     56       SAPE     HS       HAL1     0.900000E-01   1.00800           0
      6173 MEMB     56       SAPE     O21      OSL     -0.490000       15.9994           0
      6174 MEMB     56       SAPE     C21      CL       0.900000       12.0110           0
      6175 MEMB     56       SAPE     O22      OBL     -0.630000       15.9994           0
      6176 MEMB     56       SAPE     C22      CTL2    -0.220000       12.0110           0
      6177 MEMB     56       SAPE     H2R      HAL2     0.900000E-01   1.00800           0
      6178 MEMB     56       SAPE     H2S      HAL2     0.900000E-01   1.00800           0
      6179 MEMB     56       SAPE     C3       CTL2     0.800000E-01   12.0110           0
      6180 MEMB     56       SAPE     HX       HAL2     0.900000E-01   1.00800           0
      6181 MEMB     56       SAPE     HY       HAL2     0.900000E-01   1.00800           0
      6182 MEMB     56       SAPE     O31      OSL     -0.490000       15.9994           0
      6183 MEMB     56       SAPE     C31      CL       0.900000       12.0110           0
      6184 MEMB     56       SAPE     O32      OBL     -0.630000       15.9994           0
      6185 MEMB     56       SAPE     C32      CTL2    -0.220000       12.0110           0
      6186 MEMB     56       SAPE     H2X      HAL2     0.900000E-01   1.00800           0
      6187 MEMB     56       SAPE     H2Y      HAL2     0.900000E-01   1.00800           0
      6188 MEMB     56       SAPE     C23      CTL2    -0.180000       12.0110           0
      6189 MEMB     56       SAPE     H3R      HAL2     0.900000E-01   1.00800           0
      6190 MEMB     56       SAPE     H3S      HAL2     0.900000E-01   1.00800           0
      6191 MEMB     56       SAPE     C24      CTL2    -0.180000       12.0110           0
      6192 MEMB     56       SAPE     H4R      HAL2     0.900000E-01   1.00800           0
      6193 MEMB     56       SAPE     H4S      HAL2     0.900000E-01   1.00800           0
      6194 MEMB     56       SAPE     C25      CEL1    -0.150000       12.0110           0
      6195 MEMB     56       SAPE     H5R      HEL1     0.150000       1.00800           0
      6196 MEMB     56       SAPE     C26      CEL1    -0.150000       12.0110           0
      6197 MEMB     56       SAPE     H6R      HEL1     0.150000       1.00800           0
      6198 MEMB     56       SAPE     C27      CTL2    -0.180000       12.0110           0
      6199 MEMB     56       SAPE     H7R      HAL2     0.900000E-01   1.00800           0
      6200 MEMB     56       SAPE     H7S      HAL2     0.900000E-01   1.00800           0
      6201 MEMB     56       SAPE     C28      CEL1    -0.150000       12.0110           0
      6202 MEMB     56       SAPE     H8R      HEL1     0.150000       1.00800           0
      6203 MEMB     56       SAPE     C29      CEL1    -0.150000       12.0110           0
      6204 MEMB     56       SAPE     H9R      HEL1     0.150000       1.00800           0
      6205 MEMB     56       SAPE     C210     CTL2    -0.180000       12.0110           0
      6206 MEMB     56       SAPE     H10R     HAL2     0.900000E-01   1.00800           0
      6207 MEMB     56       SAPE     H10S     HAL2     0.900000E-01   1.00800           0
      6208 MEMB     56       SAPE     C211     CEL1    -0.150000       12.0110           0
      6209 MEMB     56       SAPE     H11R     HEL1     0.150000       1.00800           0
      6210 MEMB     56       SAPE     C212     CEL1    -0.150000       12.0110           0
      6211 MEMB     56       SAPE     H12R     HEL1     0.150000       1.00800           0
      6212 MEMB     56       SAPE     C213     CTL2    -0.180000       12.0110           0
      6213 MEMB     56       SAPE     H13R     HAL2     0.900000E-01   1.00800           0
      6214 MEMB     56       SAPE     H13S     HAL2     0.900000E-01   1.00800           0
      6215 MEMB     56       SAPE     C214     CEL1    -0.150000       12.0110           0
      6216 MEMB     56       SAPE     H14R     HEL1     0.150000       1.00800           0
      6217 MEMB     56       SAPE     C215     CEL1    -0.150000       12.0110           0
      6218 MEMB     56       SAPE     H15R     HEL1     0.150000       1.00800           0
      6219 MEMB     56       SAPE     C216     CTL2    -0.180000       12.0110           0
      6220 MEMB     56       SAPE     H16R     HAL2     0.900000E-01   1.00800           0
      6221 MEMB     56       SAPE     H16S     HAL2     0.900000E-01   1.00800           0
      6222 MEMB     56       SAPE     C217     CTL2    -0.180000       12.0110           0
      6223 MEMB     56       SAPE     H17R     HAL2     0.900000E-01   1.00800           0
      6224 MEMB     56       SAPE     H17S     HAL2     0.900000E-01   1.00800           0
      6225 MEMB     56       SAPE     C218     CTL2    -0.180000       12.0110           0
      6226 MEMB     56       SAPE     H18R     HAL2     0.900000E-01   1.00800           0
      6227 MEMB     56       SAPE     H18S     HAL2     0.900000E-01   1.00800           0
      6228 MEMB     56       SAPE     C219     CTL2    -0.180000       12.0110           0
      6229 MEMB     56       SAPE     H19R     HAL2     0.900000E-01   1.00800           0
      6230 MEMB     56       SAPE     H19S     HAL2     0.900000E-01   1.00800           0
      6231 MEMB     56       SAPE     C220     CTL3    -0.270000       12.0110           0
      6232 MEMB     56       SAPE     H20R     HAL3     0.900000E-01   1.00800           0
      6233 MEMB     56       SAPE     H20S     HAL3     0.900000E-01   1.00800           0
      6234 MEMB     56       SAPE     H20T     HAL3     0.900000E-01   1.00800           0
      6235 MEMB     56       SAPE     C33      CTL2    -0.180000       12.0110           0
      6236 MEMB     56       SAPE     H3X      HAL2     0.900000E-01   1.00800           0
      6237 MEMB     56       SAPE     H3Y      HAL2     0.900000E-01   1.00800           0
      6238 MEMB     56       SAPE     C34      CTL2    -0.180000       12.0110           0
      6239 MEMB     56       SAPE     H4X      HAL2     0.900000E-01   1.00800           0
      6240 MEMB     56       SAPE     H4Y      HAL2     0.900000E-01   1.00800           0
      6241 MEMB     56       SAPE     C35      CTL2    -0.180000       12.0110           0
      6242 MEMB     56       SAPE     H5X      HAL2     0.900000E-01   1.00800           0
      6243 MEMB     56       SAPE     H5Y      HAL2     0.900000E-01   1.00800           0
      6244 MEMB     56       SAPE     C36      CTL2    -0.180000       12.0110           0
      6245 MEMB     56       SAPE     H6X      HAL2     0.900000E-01   1.00800           0
      6246 MEMB     56       SAPE     H6Y      HAL2     0.900000E-01   1.00800           0
      6247 MEMB     56       SAPE     C37      CTL2    -0.180000       12.0110           0
      6248 MEMB     56       SAPE     H7X      HAL2     0.900000E-01   1.00800           0
      6249 MEMB     56       SAPE     H7Y      HAL2     0.900000E-01   1.00800           0
      6250 MEMB     56       SAPE     C38      CTL2    -0.180000       12.0110           0
      6251 MEMB     56       SAPE     H8X      HAL2     0.900000E-01   1.00800           0
      6252 MEMB     56       SAPE     H8Y      HAL2     0.900000E-01   1.00800           0
      6253 MEMB     56       SAPE     C39      CTL2    -0.180000       12.0110           0
      6254 MEMB     56       SAPE     H9X      HAL2     0.900000E-01   1.00800           0
      6255 MEMB     56       SAPE     H9Y      HAL2     0.900000E-01   1.00800           0
      6256 MEMB     56       SAPE     C310     CTL2    -0.180000       12.0110           0
      6257 MEMB     56       SAPE     H10X     HAL2     0.900000E-01   1.00800           0
      6258 MEMB     56       SAPE     H10Y     HAL2     0.900000E-01   1.00800           0
      6259 MEMB     56       SAPE     C311     CTL2    -0.180000       12.0110           0
      6260 MEMB     56       SAPE     H11X     HAL2     0.900000E-01   1.00800           0
      6261 MEMB     56       SAPE     H11Y     HAL2     0.900000E-01   1.00800           0
      6262 MEMB     56       SAPE     C312     CTL2    -0.180000       12.0110           0
      6263 MEMB     56       SAPE     H12X     HAL2     0.900000E-01   1.00800           0
      6264 MEMB     56       SAPE     H12Y     HAL2     0.900000E-01   1.00800           0
      6265 MEMB     56       SAPE     C313     CTL2    -0.180000       12.0110           0
      6266 MEMB     56       SAPE     H13X     HAL2     0.900000E-01   1.00800           0
      6267 MEMB     56       SAPE     H13Y     HAL2     0.900000E-01   1.00800           0
      6268 MEMB     56       SAPE     C314     CTL2    -0.180000       12.0110           0
      6269 MEMB     56       SAPE     H14X     HAL2     0.900000E-01   1.00800           0
      6270 MEMB     56       SAPE     H14Y     HAL2     0.900000E-01   1.00800           0
      6271 MEMB     56       SAPE     C315     CTL2    -0.180000       12.0110           0
      6272 MEMB     56       SAPE     H15X     HAL2     0.900000E-01   1.00800           0
      6273 MEMB     56       SAPE     H15Y     HAL2     0.900000E-01   1.00800           0
      6274 MEMB     56       SAPE     C316     CTL2    -0.180000       12.0110           0
      6275 MEMB     56       SAPE     H16X     HAL2     0.900000E-01   1.00800           0
      6276 MEMB     56       SAPE     H16Y     HAL2     0.900000E-01   1.00800           0
      6277 MEMB     56       SAPE     C317     CTL2    -0.180000       12.0110           0
      6278 MEMB     56       SAPE     H17X     HAL2     0.900000E-01   1.00800           0
      6279 MEMB     56       SAPE     H17Y     HAL2     0.900000E-01   1.00800           0
      6280 MEMB     56       SAPE     C318     CTL3    -0.270000       12.0110           0
      6281 MEMB     56       SAPE     H18X     HAL3     0.900000E-01   1.00800           0
      6282 MEMB     56       SAPE     H18Y     HAL3     0.900000E-01   1.00800           0
      6283 MEMB     56       SAPE     H18Z     HAL3     0.900000E-01   1.00800           0
      6284 MEMB     57       SAPE     N        NH3L    -0.300000       14.0070           0
      6285 MEMB     57       SAPE     HN1      HCL      0.330000       1.00800           0
      6286 MEMB     57       SAPE     HN2      HCL      0.330000       1.00800           0
      6287 MEMB     57       SAPE     HN3      HCL      0.330000       1.00800           0
      6288 MEMB     57       SAPE     C12      CTL2     0.130000       12.0110           0
      6289 MEMB     57       SAPE     H12A     HAL2     0.900000E-01   1.00800           0
      6290 MEMB     57       SAPE     H12B     HAL2     0.900000E-01   1.00800           0
      6291 MEMB     57       SAPE     C11      CTL2    -0.800000E-01   12.0110           0
      6292 MEMB     57       SAPE     H11A     HAL2     0.900000E-01   1.00800           0
      6293 MEMB     57       SAPE     H11B     HAL2     0.900000E-01   1.00800           0
      6294 MEMB     57       SAPE     P        PL        1.50000       30.9740           0
      6295 MEMB     57       SAPE     O13      O2L     -0.780000       15.9994           0
      6296 MEMB     57       SAPE     O14      O2L     -0.780000       15.9994           0
      6297 MEMB     57       SAPE     O12      OSLP    -0.570000       15.9994           0
      6298 MEMB     57       SAPE     O11      OSLP    -0.570000       15.9994           0
      6299 MEMB     57       SAPE     C1       CTL2    -0.800000E-01   12.0110           0
      6300 MEMB     57       SAPE     HA       HAL2     0.900000E-01   1.00800           0
      6301 MEMB     57       SAPE     HB       HAL2     0.900000E-01   1.00800           0
      6302 MEMB     57       SAPE     C2       CTL1     0.170000       12.0110           0
      6303 MEMB     57       SAPE     HS       HAL1     0.900000E-01   1.00800           0
      6304 MEMB     57       SAPE     O21      OSL     -0.490000       15.9994           0
      6305 MEMB     57       SAPE     C21      CL       0.900000       12.0110           0
      6306 MEMB     57       SAPE     O22      OBL     -0.630000       15.9994           0
      6307 MEMB     57       SAPE     C22      CTL2    -0.220000       12.0110           0
      6308 MEMB     57       SAPE     H2R      HAL2     0.900000E-01   1.00800           0
      6309 MEMB     57       SAPE     H2S      HAL2     0.900000E-01   1.00800           0
      6310 MEMB     57       SAPE     C3       CTL2     0.800000E-01   12.0110           0
      6311 MEMB     57       SAPE     HX       HAL2     0.900000E-01   1.00800           0
      6312 MEMB     57       SAPE     HY       HAL2     0.900000E-01   1.00800           0
      6313 MEMB     57       SAPE     O31      OSL     -0.490000       15.9994           0
      6314 MEMB     57       SAPE     C31      CL       0.900000       12.0110           0
      6315 MEMB     57       SAPE     O32      OBL     -0.630000       15.9994           0
      6316 MEMB     57       SAPE     C32      CTL2    -0.220000       12.0110           0
      6317 MEMB     57       SAPE     H2X      HAL2     0.900000E-01   1.00800           0
      6318 MEMB     57       SAPE     H2Y      HAL2     0.900000E-01   1.00800           0
      6319 MEMB     57       SAPE     C23      CTL2    -0.180000       12.0110           0
      6320 MEMB     57       SAPE     H3R      HAL2     0.900000E-01   1.00800           0
      6321 MEMB     57       SAPE     H3S      HAL2     0.900000E-01   1.00800           0
      6322 MEMB     57       SAPE     C24      CTL2    -0.180000       12.0110           0
      6323 MEMB     57       SAPE     H4R      HAL2     0.900000E-01   1.00800           0
      6324 MEMB     57       SAPE     H4S      HAL2     0.900000E-01   1.00800           0
      6325 MEMB     57       SAPE     C25      CEL1    -0.150000       12.0110           0
      6326 MEMB     57       SAPE     H5R      HEL1     0.150000       1.00800           0
      6327 MEMB     57       SAPE     C26      CEL1    -0.150000       12.0110           0
      6328 MEMB     57       SAPE     H6R      HEL1     0.150000       1.00800           0
      6329 MEMB     57       SAPE     C27      CTL2    -0.180000       12.0110           0
      6330 MEMB     57       SAPE     H7R      HAL2     0.900000E-01   1.00800           0
      6331 MEMB     57       SAPE     H7S      HAL2     0.900000E-01   1.00800           0
      6332 MEMB     57       SAPE     C28      CEL1    -0.150000       12.0110           0
      6333 MEMB     57       SAPE     H8R      HEL1     0.150000       1.00800           0
      6334 MEMB     57       SAPE     C29      CEL1    -0.150000       12.0110           0
      6335 MEMB     57       SAPE     H9R      HEL1     0.150000       1.00800           0
      6336 MEMB     57       SAPE     C210     CTL2    -0.180000       12.0110           0
      6337 MEMB     57       SAPE     H10R     HAL2     0.900000E-01   1.00800           0
      6338 MEMB     57       SAPE     H10S     HAL2     0.900000E-01   1.00800           0
      6339 MEMB     57       SAPE     C211     CEL1    -0.150000       12.0110           0
      6340 MEMB     57       SAPE     H11R     HEL1     0.150000       1.00800           0
      6341 MEMB     57       SAPE     C212     CEL1    -0.150000       12.0110           0
      6342 MEMB     57       SAPE     H12R     HEL1     0.150000       1.00800           0
      6343 MEMB     57       SAPE     C213     CTL2    -0.180000       12.0110           0
      6344 MEMB     57       SAPE     H13R     HAL2     0.900000E-01   1.00800           0
      6345 MEMB     57       SAPE     H13S     HAL2     0.900000E-01   1.00800           0
      6346 MEMB     57       SAPE     C214     CEL1    -0.150000       12.0110           0
      6347 MEMB     57       SAPE     H14R     HEL1     0.150000       1.00800           0
      6348 MEMB     57       SAPE     C215     CEL1    -0.150000       12.0110           0
      6349 MEMB     57       SAPE     H15R     HEL1     0.150000       1.00800           0
      6350 MEMB     57       SAPE     C216     CTL2    -0.180000       12.0110           0
      6351 MEMB     57       SAPE     H16R     HAL2     0.900000E-01   1.00800           0
      6352 MEMB     57       SAPE     H16S     HAL2     0.900000E-01   1.00800           0
      6353 MEMB     57       SAPE     C217     CTL2    -0.180000       12.0110           0
      6354 MEMB     57       SAPE     H17R     HAL2     0.900000E-01   1.00800           0
      6355 MEMB     57       SAPE     H17S     HAL2     0.900000E-01   1.00800           0
      6356 MEMB     57       SAPE     C218     CTL2    -0.180000       12.0110           0
      6357 MEMB     57       SAPE     H18R     HAL2     0.900000E-01   1.00800           0
      6358 MEMB     57       SAPE     H18S     HAL2     0.900000E-01   1.00800           0
      6359 MEMB     57       SAPE     C219     CTL2    -0.180000       12.0110           0
      6360 MEMB     57       SAPE     H19R     HAL2     0.900000E-01   1.00800           0
      6361 MEMB     57       SAPE     H19S     HAL2     0.900000E-01   1.00800           0
      6362 MEMB     57       SAPE     C220     CTL3    -0.270000       12.0110           0
      6363 MEMB     57       SAPE     H20R     HAL3     0.900000E-01   1.00800           0
      6364 MEMB     57       SAPE     H20S     HAL3     0.900000E-01   1.00800           0
      6365 MEMB     57       SAPE     H20T     HAL3     0.900000E-01   1.00800           0
      6366 MEMB     57       SAPE     C33      CTL2    -0.180000       12.0110           0
      6367 MEMB     57       SAPE     H3X      HAL2     0.900000E-01   1.00800           0
      6368 MEMB     57       SAPE     H3Y      HAL2     0.900000E-01   1.00800           0
      6369 MEMB     57       SAPE     C34      CTL2    -0.180000       12.0110           0
      6370 MEMB     57       SAPE     H4X      HAL2     0.900000E-01   1.00800           0
      6371 MEMB     57       SAPE     H4Y      HAL2     0.900000E-01   1.00800           0
      6372 MEMB     57       SAPE     C35      CTL2    -0.180000       12.0110           0
      6373 MEMB     57       SAPE     H5X      HAL2     0.900000E-01   1.00800           0
      6374 MEMB     57       SAPE     H5Y      HAL2     0.900000E-01   1.00800           0
      6375 MEMB     57       SAPE     C36      CTL2    -0.180000       12.0110           0
      6376 MEMB     57       SAPE     H6X      HAL2     0.900000E-01   1.00800           0
      6377 MEMB     57       SAPE     H6Y      HAL2     0.900000E-01   1.00800           0
      6378 MEMB     57       SAPE     C37      CTL2    -0.180000       12.0110           0
      6379 MEMB     57       SAPE     H7X      HAL2     0.900000E-01   1.00800           0
      6380 MEMB     57       SAPE     H7Y      HAL2     0.900000E-01   1.00800           0
      6381 MEMB     57       SAPE     C38      CTL2    -0.180000       12.0110           0
      6382 MEMB     57       SAPE     H8X      HAL2     0.900000E-01   1.00800           0
      6383 MEMB     57       SAPE     H8Y      HAL2     0.900000E-01   1.00800           0
      6384 MEMB     57       SAPE     C39      CTL2    -0.180000       12.0110           0
      6385 MEMB     57       SAPE     H9X      HAL2     0.900000E-01   1.00800           0
      6386 MEMB     57       SAPE     H9Y      HAL2     0.900000E-01   1.00800           0
      6387 MEMB     57       SAPE     C310     CTL2    -0.180000       12.0110           0
      6388 MEMB     57       SAPE     H10X     HAL2     0.900000E-01   1.00800           0
      6389 MEMB     57       SAPE     H10Y     HAL2     0.900000E-01   1.00800           0
      6390 MEMB     57       SAPE     C311     CTL2    -0.180000       12.0110           0
      6391 MEMB     57       SAPE     H11X     HAL2     0.900000E-01   1.00800           0
      6392 MEMB     57       SAPE     H11Y     HAL2     0.900000E-01   1.00800           0
      6393 MEMB     57       SAPE     C312     CTL2    -0.180000       12.0110           0
      6394 MEMB     57       SAPE     H12X     HAL2     0.900000E-01   1.00800           0
      6395 MEMB     57       SAPE     H12Y     HAL2     0.900000E-01   1.00800           0
      6396 MEMB     57       SAPE     C313     CTL2    -0.180000       12.0110           0
      6397 MEMB     57       SAPE     H13X     HAL2     0.900000E-01   1.00800           0
      6398 MEMB     57       SAPE     H13Y     HAL2     0.900000E-01   1.00800           0
      6399 MEMB     57       SAPE     C314     CTL2    -0.180000       12.0110           0
      6400 MEMB     57       SAPE     H14X     HAL2     0.900000E-01   1.00800           0
      6401 MEMB     57       SAPE     H14Y     HAL2     0.900000E-01   1.00800           0
      6402 MEMB     57       SAPE     C315     CTL2    -0.180000       12.0110           0
      6403 MEMB     57       SAPE     H15X     HAL2     0.900000E-01   1.00800           0
      6404 MEMB     57       SAPE     H15Y     HAL2     0.900000E-01   1.00800           0
      6405 MEMB     57       SAPE     C316     CTL2    -0.180000       12.0110           0
      6406 MEMB     57       SAPE     H16X     HAL2     0.900000E-01   1.00800           0
      6407 MEMB     57       SAPE     H16Y     HAL2     0.900000E-01   1.00800           0
      6408 MEMB     57       SAPE     C317     CTL2    -0.180000       12.0110           0
      6409 MEMB     57       SAPE     H17X     HAL2     0.900000E-01   1.00800           0
      6410 MEMB     57       SAPE     H17Y     HAL2     0.900000E-01   1.00800           0
      6411 MEMB     57       SAPE     C318     CTL3    -0.270000       12.0110           0
      6412 MEMB     57       SAPE     H18X     HAL3     0.900000E-01   1.00800           0
      6413 MEMB     57       SAPE     H18Y     HAL3     0.900000E-01   1.00800           0
      6414 MEMB     57       SAPE     H18Z     HAL3     0.900000E-01   1.00800           0
      6415 MEMB     58       OSM      N        NTL     -0.600000       14.0070           0
      6416 MEMB     58       OSM      C15      CTL5    -0.350000       12.0110           0
      6417 MEMB     58       OSM      H15A     HL       0.250000       1.00800           0
      6418 MEMB     58       OSM      H15B     HL       0.250000       1.00800           0
      6419 MEMB     58       OSM      H15C     HL       0.250000       1.00800           0
      6420 MEMB     58       OSM      C14      CTL5    -0.350000       12.0110           0
      6421 MEMB     58       OSM      H14A     HL       0.250000       1.00800           0
      6422 MEMB     58       OSM      H14B     HL       0.250000       1.00800           0
      6423 MEMB     58       OSM      H14C     HL       0.250000       1.00800           0
      6424 MEMB     58       OSM      C13      CTL5    -0.350000       12.0110           0
      6425 MEMB     58       OSM      H13A     HL       0.250000       1.00800           0
      6426 MEMB     58       OSM      H13B     HL       0.250000       1.00800           0
      6427 MEMB     58       OSM      H13C     HL       0.250000       1.00800           0
      6428 MEMB     58       OSM      C12      CTL2    -0.100000       12.0110           0
      6429 MEMB     58       OSM      H12A     HL       0.250000       1.00800           0
      6430 MEMB     58       OSM      H12B     HL       0.250000       1.00800           0
      6431 MEMB     58       OSM      C11      CTL2    -0.800000E-01   12.0110           0
      6432 MEMB     58       OSM      H11A     HAL2     0.900000E-01   1.00800           0
      6433 MEMB     58       OSM      H11B     HAL2     0.900000E-01   1.00800           0
      6434 MEMB     58       OSM      P        PL        1.50000       30.9740           0
      6435 MEMB     58       OSM      O13      O2L     -0.780000       15.9994           0
      6436 MEMB     58       OSM      O14      O2L     -0.780000       15.9994           0
      6437 MEMB     58       OSM      O11      OSLP    -0.570000       15.9994           0
      6438 MEMB     58       OSM      O12      OSLP    -0.570000       15.9994           0
      6439 MEMB     58       OSM      C1S      CTL2    -0.800000E-01   12.0110           0
      6440 MEMB     58       OSM      H1S      HAL2     0.900000E-01   1.00800           0
      6441 MEMB     58       OSM      H1T      HAL2     0.900000E-01   1.00800           0
      6442 MEMB     58       OSM      NF       NHL     -0.700000       14.0070           0
      6443 MEMB     58       OSM      HNF      H        0.350000       1.00800           0
      6444 MEMB     58       OSM      C2S      CTL1     0.300000       12.0110           0
      6445 MEMB     58       OSM      H2S      HAL1     0.500000E-01   1.00800           0
      6446 MEMB     58       OSM      C3S      CTO1     0.500000       12.0110           0
      6447 MEMB     58       OSM      H3S      HAL1    -0.110000       1.00800           0
      6448 MEMB     58       OSM      O3       OHL     -0.690000       15.9994           0
      6449 MEMB     58       OSM      HO3      HOL      0.300000       1.00800           0
      6450 MEMB     58       OSM      C4S      CEL3    -0.150000       12.0110           0
      6451 MEMB     58       OSM      H4S      HEL1     0.150000       1.00800           0
      6452 MEMB     58       OSM      C5S      CEL3    -0.150000       12.0110           0
      6453 MEMB     58       OSM      H5S      HEL1     0.150000       1.00800           0
      6454 MEMB     58       OSM      C6S      CTL2    -0.180000       12.0110           0
      6455 MEMB     58       OSM      H6S      HAL2     0.900000E-01   1.00800           0
      6456 MEMB     58       OSM      H6T      HAL2     0.900000E-01   1.00800           0
      6457 MEMB     58       OSM      C7S      CTL2    -0.180000       12.0110           0
      6458 MEMB     58       OSM      H7S      HAL2     0.900000E-01   1.00800           0
      6459 MEMB     58       OSM      H7T      HAL2     0.900000E-01   1.00800           0
      6460 MEMB     58       OSM      C8S      CTL2    -0.180000       12.0110           0
      6461 MEMB     58       OSM      H8S      HAL2     0.900000E-01   1.00800           0
      6462 MEMB     58       OSM      H8T      HAL2     0.900000E-01   1.00800           0
      6463 MEMB     58       OSM      C9S      CTL2    -0.180000       12.0110           0
      6464 MEMB     58       OSM      H9S      HAL2     0.900000E-01   1.00800           0
      6465 MEMB     58       OSM      H9T      HAL2     0.900000E-01   1.00800           0
      6466 MEMB     58       OSM      C10S     CTL2    -0.180000       12.0110           0
      6467 MEMB     58       OSM      H10S     HAL2     0.900000E-01   1.00800           0
      6468 MEMB     58       OSM      H10T     HAL2     0.900000E-01   1.00800           0
      6469 MEMB     58       OSM      C11S     CTL2    -0.180000       12.0110           0
      6470 MEMB     58       OSM      H11S     HAL2     0.900000E-01   1.00800           0
      6471 MEMB     58       OSM      H11T     HAL2     0.900000E-01   1.00800           0
      6472 MEMB     58       OSM      C12S     CTL2    -0.180000       12.0110           0
      6473 MEMB     58       OSM      H12S     HAL2     0.900000E-01   1.00800           0
      6474 MEMB     58       OSM      H12T     HAL2     0.900000E-01   1.00800           0
      6475 MEMB     58       OSM      C13S     CTL2    -0.180000       12.0110           0
      6476 MEMB     58       OSM      H13S     HAL2     0.900000E-01   1.00800           0
      6477 MEMB     58       OSM      H13T     HAL2     0.900000E-01   1.00800           0
      6478 MEMB     58       OSM      C14S     CTL2    -0.180000       12.0110           0
      6479 MEMB     58       OSM      H14S     HAL2     0.900000E-01   1.00800           0
      6480 MEMB     58       OSM      H14T     HAL2     0.900000E-01   1.00800           0
      6481 MEMB     58       OSM      C15S     CTL2    -0.180000       12.0110           0
      6482 MEMB     58       OSM      H15S     HAL2     0.900000E-01   1.00800           0
      6483 MEMB     58       OSM      H15T     HAL2     0.900000E-01   1.00800           0
      6484 MEMB     58       OSM      C16S     CTL2    -0.180000       12.0110           0
      6485 MEMB     58       OSM      H16S     HAL2     0.900000E-01   1.00800           0
      6486 MEMB     58       OSM      H16T     HAL2     0.900000E-01   1.00800           0
      6487 MEMB     58       OSM      C17S     CTL2    -0.180000       12.0110           0
      6488 MEMB     58       OSM      H17S     HAL2     0.900000E-01   1.00800           0
      6489 MEMB     58       OSM      H17T     HAL2     0.900000E-01   1.00800           0
      6490 MEMB     58       OSM      C18S     CTL3    -0.270000       12.0110           0
      6491 MEMB     58       OSM      H18S     HAL3     0.900000E-01   1.00800           0
      6492 MEMB     58       OSM      H18T     HAL3     0.900000E-01   1.00800           0
      6493 MEMB     58       OSM      H18U     HAL3     0.900000E-01   1.00800           0
      6494 MEMB     58       OSM      C1F      C        0.550000       12.0110           0
      6495 MEMB     58       OSM      OF       O       -0.600000       15.9994           0
      6496 MEMB     58       OSM      C2F      CTL2    -0.700000E-01   12.0110           0
      6497 MEMB     58       OSM      H2F      HAL2     0.600000E-01   1.00800           0
      6498 MEMB     58       OSM      H2G      HAL2     0.600000E-01   1.00800           0
      6499 MEMB     58       OSM      C3F      CTL2    -0.180000       12.0110           0
      6500 MEMB     58       OSM      H3F      HAL2     0.900000E-01   1.00800           0
      6501 MEMB     58       OSM      H3G      HAL2     0.900000E-01   1.00800           0
      6502 MEMB     58       OSM      C4F      CTL2    -0.180000       12.0110           0
      6503 MEMB     58       OSM      H4F      HAL2     0.900000E-01   1.00800           0
      6504 MEMB     58       OSM      H4G      HAL2     0.900000E-01   1.00800           0
      6505 MEMB     58       OSM      C5F      CTL2    -0.180000       12.0110           0
      6506 MEMB     58       OSM      H5F      HAL2     0.900000E-01   1.00800           0
      6507 MEMB     58       OSM      H5G      HAL2     0.900000E-01   1.00800           0
      6508 MEMB     58       OSM      C6F      CTL2    -0.180000       12.0110           0
      6509 MEMB     58       OSM      H6F      HAL2     0.900000E-01   1.00800           0
      6510 MEMB     58       OSM      H6G      HAL2     0.900000E-01   1.00800           0
      6511 MEMB     58       OSM      C7F      CTL2    -0.180000       12.0110           0
      6512 MEMB     58       OSM      H7F      HAL2     0.900000E-01   1.00800           0
      6513 MEMB     58       OSM      H7G      HAL2     0.900000E-01   1.00800           0
      6514 MEMB     58       OSM      C8F      CTL2    -0.180000       12.0110           0
      6515 MEMB     58       OSM      H8F      HAL2     0.900000E-01   1.00800           0
      6516 MEMB     58       OSM      H8G      HAL2     0.900000E-01   1.00800           0
      6517 MEMB     58       OSM      C9F      CEL1    -0.150000       12.0110           0
      6518 MEMB     58       OSM      H9F      HEL1     0.150000       1.00800           0
      6519 MEMB     58       OSM      C10F     CEL1    -0.150000       12.0110           0
      6520 MEMB     58       OSM      H10F     HEL1     0.150000       1.00800           0
      6521 MEMB     58       OSM      C11F     CTL2    -0.180000       12.0110           0
      6522 MEMB     58       OSM      H11F     HAL2     0.900000E-01   1.00800           0
      6523 MEMB     58       OSM      H11G     HAL2     0.900000E-01   1.00800           0
      6524 MEMB     58       OSM      C12F     CTL2    -0.180000       12.0110           0
      6525 MEMB     58       OSM      H12F     HAL2     0.900000E-01   1.00800           0
      6526 MEMB     58       OSM      H12G     HAL2     0.900000E-01   1.00800           0
      6527 MEMB     58       OSM      C13F     CTL2    -0.180000       12.0110           0
      6528 MEMB     58       OSM      H13F     HAL2     0.900000E-01   1.00800           0
      6529 MEMB     58       OSM      H13G     HAL2     0.900000E-01   1.00800           0
      6530 MEMB     58       OSM      C14F     CTL2    -0.180000       12.0110           0
      6531 MEMB     58       OSM      H14F     HAL2     0.900000E-01   1.00800           0
      6532 MEMB     58       OSM      H14G     HAL2     0.900000E-01   1.00800           0
      6533 MEMB     58       OSM      C15F     CTL2    -0.180000       12.0110           0
      6534 MEMB     58       OSM      H15F     HAL2     0.900000E-01   1.00800           0
      6535 MEMB     58       OSM      H15G     HAL2     0.900000E-01   1.00800           0
      6536 MEMB     58       OSM      C16F     CTL2    -0.180000       12.0110           0
      6537 MEMB     58       OSM      H16F     HAL2     0.900000E-01   1.00800           0
      6538 MEMB     58       OSM      H16G     HAL2     0.900000E-01   1.00800           0
      6539 MEMB     58       OSM      C17F     CTL2    -0.180000       12.0110           0
      6540 MEMB     58       OSM      H17F     HAL2     0.900000E-01   1.00800           0
      6541 MEMB     58       OSM      H17G     HAL2     0.900000E-01   1.00800           0
      6542 MEMB     58       OSM      C18F     CTL3    -0.270000       12.0110           0
      6543 MEMB     58       OSM      H18F     HAL3     0.900000E-01   1.00800           0
      6544 MEMB     58       OSM      H18G     HAL3     0.900000E-01   1.00800           0
      6545 MEMB     58       OSM      H18H     HAL3     0.900000E-01   1.00800           0
      6546 MEMB     59       SLPC     N        NTL     -0.600000       14.0070           0
      6547 MEMB     59       SLPC     C13      CTL5    -0.350000       12.0110           0
      6548 MEMB     59       SLPC     H13A     HL       0.250000       1.00800           0
      6549 MEMB     59       SLPC     H13B     HL       0.250000       1.00800           0
      6550 MEMB     59       SLPC     H13C     HL       0.250000       1.00800           0
      6551 MEMB     59       SLPC     C14      CTL5    -0.350000       12.0110           0
      6552 MEMB     59       SLPC     H14A     HL       0.250000       1.00800           0
      6553 MEMB     59       SLPC     H14B     HL       0.250000       1.00800           0
      6554 MEMB     59       SLPC     H14C     HL       0.250000       1.00800           0
      6555 MEMB     59       SLPC     C15      CTL5    -0.350000       12.0110           0
      6556 MEMB     59       SLPC     H15A     HL       0.250000       1.00800           0
      6557 MEMB     59       SLPC     H15B     HL       0.250000       1.00800           0
      6558 MEMB     59       SLPC     H15C     HL       0.250000       1.00800           0
      6559 MEMB     59       SLPC     C12      CTL2    -0.100000       12.0110           0
      6560 MEMB     59       SLPC     H12A     HL       0.250000       1.00800           0
      6561 MEMB     59       SLPC     H12B     HL       0.250000       1.00800           0
      6562 MEMB     59       SLPC     C11      CTL2    -0.800000E-01   12.0110           0
      6563 MEMB     59       SLPC     H11A     HAL2     0.900000E-01   1.00800           0
      6564 MEMB     59       SLPC     H11B     HAL2     0.900000E-01   1.00800           0
      6565 MEMB     59       SLPC     P        PL        1.50000       30.9740           0
      6566 MEMB     59       SLPC     O13      O2L     -0.780000       15.9994           0
      6567 MEMB     59       SLPC     O14      O2L     -0.780000       15.9994           0
      6568 MEMB     59       SLPC     O12      OSLP    -0.570000       15.9994           0
      6569 MEMB     59       SLPC     O11      OSLP    -0.570000       15.9994           0
      6570 MEMB     59       SLPC     C1       CTL2    -0.800000E-01   12.0110           0
      6571 MEMB     59       SLPC     HA       HAL2     0.900000E-01   1.00800           0
      6572 MEMB     59       SLPC     HB       HAL2     0.900000E-01   1.00800           0
      6573 MEMB     59       SLPC     C2       CTL1     0.170000       12.0110           0
      6574 MEMB     59       SLPC     HS       HAL1     0.900000E-01   1.00800           0
      6575 MEMB     59       SLPC     O21      OSL     -0.490000       15.9994           0
      6576 MEMB     59       SLPC     C21      CL       0.900000       12.0110           0
      6577 MEMB     59       SLPC     O22      OBL     -0.630000       15.9994           0
      6578 MEMB     59       SLPC     C22      CTL2    -0.220000       12.0110           0
      6579 MEMB     59       SLPC     H2R      HAL2     0.900000E-01   1.00800           0
      6580 MEMB     59       SLPC     H2S      HAL2     0.900000E-01   1.00800           0
      6581 MEMB     59       SLPC     C3       CTL2     0.800000E-01   12.0110           0
      6582 MEMB     59       SLPC     HX       HAL2     0.900000E-01   1.00800           0
      6583 MEMB     59       SLPC     HY       HAL2     0.900000E-01   1.00800           0
      6584 MEMB     59       SLPC     O31      OSL     -0.490000       15.9994           0
      6585 MEMB     59       SLPC     C31      CL       0.900000       12.0110           0
      6586 MEMB     59       SLPC     O32      OBL     -0.630000       15.9994           0
      6587 MEMB     59       SLPC     C32      CTL2    -0.220000       12.0110           0
      6588 MEMB     59       SLPC     H2X      HAL2     0.900000E-01   1.00800           0
      6589 MEMB     59       SLPC     H2Y      HAL2     0.900000E-01   1.00800           0
      6590 MEMB     59       SLPC     C23      CTL2    -0.180000       12.0110           0
      6591 MEMB     59       SLPC     H3R      HAL2     0.900000E-01   1.00800           0
      6592 MEMB     59       SLPC     H3S      HAL2     0.900000E-01   1.00800           0
      6593 MEMB     59       SLPC     C24      CTL2    -0.180000       12.0110           0
      6594 MEMB     59       SLPC     H4R      HAL2     0.900000E-01   1.00800           0
      6595 MEMB     59       SLPC     H4S      HAL2     0.900000E-01   1.00800           0
      6596 MEMB     59       SLPC     C25      CTL2    -0.180000       12.0110           0
      6597 MEMB     59       SLPC     H5R      HAL2     0.900000E-01   1.00800           0
      6598 MEMB     59       SLPC     H5S      HAL2     0.900000E-01   1.00800           0
      6599 MEMB     59       SLPC     C26      CTL2    -0.180000       12.0110           0
      6600 MEMB     59       SLPC     H6R      HAL2     0.900000E-01   1.00800           0
      6601 MEMB     59       SLPC     H6S      HAL2     0.900000E-01   1.00800           0
      6602 MEMB     59       SLPC     C27      CTL2    -0.180000       12.0110           0
      6603 MEMB     59       SLPC     H7R      HAL2     0.900000E-01   1.00800           0
      6604 MEMB     59       SLPC     H7S      HAL2     0.900000E-01   1.00800           0
      6605 MEMB     59       SLPC     C28      CTL2    -0.180000       12.0110           0
      6606 MEMB     59       SLPC     H8R      HAL2     0.900000E-01   1.00800           0
      6607 MEMB     59       SLPC     H8S      HAL2     0.900000E-01   1.00800           0
      6608 MEMB     59       SLPC     C29      CEL1    -0.150000       12.0110           0
      6609 MEMB     59       SLPC     H9R      HEL1     0.150000       1.00800           0
      6610 MEMB     59       SLPC     C210     CEL1    -0.150000       12.0110           0
      6611 MEMB     59       SLPC     H10R     HEL1     0.150000       1.00800           0
      6612 MEMB     59       SLPC     C211     CTL2    -0.180000       12.0110           0
      6613 MEMB     59       SLPC     H11R     HAL2     0.900000E-01   1.00800           0
      6614 MEMB     59       SLPC     H11S     HAL2     0.900000E-01   1.00800           0
      6615 MEMB     59       SLPC     C212     CEL1    -0.150000       12.0110           0
      6616 MEMB     59       SLPC     H12R     HEL1     0.150000       1.00800           0
      6617 MEMB     59       SLPC     C213     CEL1    -0.150000       12.0110           0
      6618 MEMB     59       SLPC     H13R     HEL1     0.150000       1.00800           0
      6619 MEMB     59       SLPC     C214     CTL2    -0.180000       12.0110           0
      6620 MEMB     59       SLPC     H14R     HAL2     0.900000E-01   1.00800           0
      6621 MEMB     59       SLPC     H14S     HAL2     0.900000E-01   1.00800           0
      6622 MEMB     59       SLPC     C215     CTL2    -0.180000       12.0110           0
      6623 MEMB     59       SLPC     H15R     HAL2     0.900000E-01   1.00800           0
      6624 MEMB     59       SLPC     H15S     HAL2     0.900000E-01   1.00800           0
      6625 MEMB     59       SLPC     C216     CTL2    -0.180000       12.0110           0
      6626 MEMB     59       SLPC     H16R     HAL2     0.900000E-01   1.00800           0
      6627 MEMB     59       SLPC     H16S     HAL2     0.900000E-01   1.00800           0
      6628 MEMB     59       SLPC     C217     CTL2    -0.180000       12.0110           0
      6629 MEMB     59       SLPC     H17R     HAL2     0.900000E-01   1.00800           0
      6630 MEMB     59       SLPC     H17S     HAL2     0.900000E-01   1.00800           0
      6631 MEMB     59       SLPC     C218     CTL3    -0.270000       12.0110           0
      6632 MEMB     59       SLPC     H18R     HAL3     0.900000E-01   1.00800           0
      6633 MEMB     59       SLPC     H18S     HAL3     0.900000E-01   1.00800           0
      6634 MEMB     59       SLPC     H18T     HAL3     0.900000E-01   1.00800           0
      6635 MEMB     59       SLPC     C33      CTL2    -0.180000       12.0110           0
      6636 MEMB     59       SLPC     H3X      HAL2     0.900000E-01   1.00800           0
      6637 MEMB     59       SLPC     H3Y      HAL2     0.900000E-01   1.00800           0
      6638 MEMB     59       SLPC     C34      CTL2    -0.180000       12.0110           0
      6639 MEMB     59       SLPC     H4X      HAL2     0.900000E-01   1.00800           0
      6640 MEMB     59       SLPC     H4Y      HAL2     0.900000E-01   1.00800           0
      6641 MEMB     59       SLPC     C35      CTL2    -0.180000       12.0110           0
      6642 MEMB     59       SLPC     H5X      HAL2     0.900000E-01   1.00800           0
      6643 MEMB     59       SLPC     H5Y      HAL2     0.900000E-01   1.00800           0
      6644 MEMB     59       SLPC     C36      CTL2    -0.180000       12.0110           0
      6645 MEMB     59       SLPC     H6X      HAL2     0.900000E-01   1.00800           0
      6646 MEMB     59       SLPC     H6Y      HAL2     0.900000E-01   1.00800           0
      6647 MEMB     59       SLPC     C37      CTL2    -0.180000       12.0110           0
      6648 MEMB     59       SLPC     H7X      HAL2     0.900000E-01   1.00800           0
      6649 MEMB     59       SLPC     H7Y      HAL2     0.900000E-01   1.00800           0
      6650 MEMB     59       SLPC     C38      CTL2    -0.180000       12.0110           0
      6651 MEMB     59       SLPC     H8X      HAL2     0.900000E-01   1.00800           0
      6652 MEMB     59       SLPC     H8Y      HAL2     0.900000E-01   1.00800           0
      6653 MEMB     59       SLPC     C39      CTL2    -0.180000       12.0110           0
      6654 MEMB     59       SLPC     H9X      HAL2     0.900000E-01   1.00800           0
      6655 MEMB     59       SLPC     H9Y      HAL2     0.900000E-01   1.00800           0
      6656 MEMB     59       SLPC     C310     CTL2    -0.180000       12.0110           0
      6657 MEMB     59       SLPC     H10X     HAL2     0.900000E-01   1.00800           0
      6658 MEMB     59       SLPC     H10Y     HAL2     0.900000E-01   1.00800           0
      6659 MEMB     59       SLPC     C311     CTL2    -0.180000       12.0110           0
      6660 MEMB     59       SLPC     H11X     HAL2     0.900000E-01   1.00800           0
      6661 MEMB     59       SLPC     H11Y     HAL2     0.900000E-01   1.00800           0
      6662 MEMB     59       SLPC     C312     CTL2    -0.180000       12.0110           0
      6663 MEMB     59       SLPC     H12X     HAL2     0.900000E-01   1.00800           0
      6664 MEMB     59       SLPC     H12Y     HAL2     0.900000E-01   1.00800           0
      6665 MEMB     59       SLPC     C313     CTL2    -0.180000       12.0110           0
      6666 MEMB     59       SLPC     H13X     HAL2     0.900000E-01   1.00800           0
      6667 MEMB     59       SLPC     H13Y     HAL2     0.900000E-01   1.00800           0
      6668 MEMB     59       SLPC     C314     CTL2    -0.180000       12.0110           0
      6669 MEMB     59       SLPC     H14X     HAL2     0.900000E-01   1.00800           0
      6670 MEMB     59       SLPC     H14Y     HAL2     0.900000E-01   1.00800           0
      6671 MEMB     59       SLPC     C315     CTL2    -0.180000       12.0110           0
      6672 MEMB     59       SLPC     H15X     HAL2     0.900000E-01   1.00800           0
      6673 MEMB     59       SLPC     H15Y     HAL2     0.900000E-01   1.00800           0
      6674 MEMB     59       SLPC     C316     CTL2    -0.180000       12.0110           0
      6675 MEMB     59       SLPC     H16X     HAL2     0.900000E-01   1.00800           0
      6676 MEMB     59       SLPC     H16Y     HAL2     0.900000E-01   1.00800           0
      6677 MEMB     59       SLPC     C317     CTL2    -0.180000       12.0110           0
      6678 MEMB     59       SLPC     H17X     HAL2     0.900000E-01   1.00800           0
      6679 MEMB     59       SLPC     H17Y     HAL2     0.900000E-01   1.00800           0
      6680 MEMB     59       SLPC     C318     CTL3    -0.270000       12.0110           0
      6681 MEMB     59       SLPC     H18X     HAL3     0.900000E-01   1.00800           0
      6682 MEMB     59       SLPC     H18Y     HAL3     0.900000E-01   1.00800           0
      6683 MEMB     59       SLPC     H18Z     HAL3     0.900000E-01   1.00800           0
      6684 MEMB     60       SAPC     N        NTL     -0.600000       14.0070           0
      6685 MEMB     60       SAPC     C12      CTL2    -0.100000       12.0110           0
      6686 MEMB     60       SAPC     H12A     HL       0.250000       1.00800           0
      6687 MEMB     60       SAPC     H12B     HL       0.250000       1.00800           0
      6688 MEMB     60       SAPC     C13      CTL5    -0.350000       12.0110           0
      6689 MEMB     60       SAPC     H13A     HL       0.250000       1.00800           0
      6690 MEMB     60       SAPC     H13B     HL       0.250000       1.00800           0
      6691 MEMB     60       SAPC     H13C     HL       0.250000       1.00800           0
      6692 MEMB     60       SAPC     C14      CTL5    -0.350000       12.0110           0
      6693 MEMB     60       SAPC     H14A     HL       0.250000       1.00800           0
      6694 MEMB     60       SAPC     H14B     HL       0.250000       1.00800           0
      6695 MEMB     60       SAPC     H14C     HL       0.250000       1.00800           0
      6696 MEMB     60       SAPC     C15      CTL5    -0.350000       12.0110           0
      6697 MEMB     60       SAPC     H15A     HL       0.250000       1.00800           0
      6698 MEMB     60       SAPC     H15B     HL       0.250000       1.00800           0
      6699 MEMB     60       SAPC     H15C     HL       0.250000       1.00800           0
      6700 MEMB     60       SAPC     C11      CTL2    -0.800000E-01   12.0110           0
      6701 MEMB     60       SAPC     H11A     HAL2     0.900000E-01   1.00800           0
      6702 MEMB     60       SAPC     H11B     HAL2     0.900000E-01   1.00800           0
      6703 MEMB     60       SAPC     P        PL        1.50000       30.9740           0
      6704 MEMB     60       SAPC     O13      O2L     -0.780000       15.9994           0
      6705 MEMB     60       SAPC     O14      O2L     -0.780000       15.9994           0
      6706 MEMB     60       SAPC     O12      OSLP    -0.570000       15.9994           0
      6707 MEMB     60       SAPC     O11      OSLP    -0.570000       15.9994           0
      6708 MEMB     60       SAPC     C1       CTL2    -0.800000E-01   12.0110           0
      6709 MEMB     60       SAPC     HA       HAL2     0.900000E-01   1.00800           0
      6710 MEMB     60       SAPC     HB       HAL2     0.900000E-01   1.00800           0
      6711 MEMB     60       SAPC     C2       CTL1     0.170000       12.0110           0
      6712 MEMB     60       SAPC     HS       HAL1     0.900000E-01   1.00800           0
      6713 MEMB     60       SAPC     O21      OSL     -0.490000       15.9994           0
      6714 MEMB     60       SAPC     C21      CL       0.900000       12.0110           0
      6715 MEMB     60       SAPC     O22      OBL     -0.630000       15.9994           0
      6716 MEMB     60       SAPC     C22      CTL2    -0.220000       12.0110           0
      6717 MEMB     60       SAPC     H2R      HAL2     0.900000E-01   1.00800           0
      6718 MEMB     60       SAPC     H2S      HAL2     0.900000E-01   1.00800           0
      6719 MEMB     60       SAPC     C3       CTL2     0.800000E-01   12.0110           0
      6720 MEMB     60       SAPC     HX       HAL2     0.900000E-01   1.00800           0
      6721 MEMB     60       SAPC     HY       HAL2     0.900000E-01   1.00800           0
      6722 MEMB     60       SAPC     O31      OSL     -0.490000       15.9994           0
      6723 MEMB     60       SAPC     C31      CL       0.900000       12.0110           0
      6724 MEMB     60       SAPC     O32      OBL     -0.630000       15.9994           0
      6725 MEMB     60       SAPC     C32      CTL2    -0.220000       12.0110           0
      6726 MEMB     60       SAPC     H2X      HAL2     0.900000E-01   1.00800           0
      6727 MEMB     60       SAPC     H2Y      HAL2     0.900000E-01   1.00800           0
      6728 MEMB     60       SAPC     C23      CTL2    -0.180000       12.0110           0
      6729 MEMB     60       SAPC     H3R      HAL2     0.900000E-01   1.00800           0
      6730 MEMB     60       SAPC     H3S      HAL2     0.900000E-01   1.00800           0
      6731 MEMB     60       SAPC     C24      CTL2    -0.180000       12.0110           0
      6732 MEMB     60       SAPC     H4R      HAL2     0.900000E-01   1.00800           0
      6733 MEMB     60       SAPC     H4S      HAL2     0.900000E-01   1.00800           0
      6734 MEMB     60       SAPC     C25      CEL1    -0.150000       12.0110           0
      6735 MEMB     60       SAPC     H5R      HEL1     0.150000       1.00800           0
      6736 MEMB     60       SAPC     C26      CEL1    -0.150000       12.0110           0
      6737 MEMB     60       SAPC     H6R      HEL1     0.150000       1.00800           0
      6738 MEMB     60       SAPC     C27      CTL2    -0.180000       12.0110           0
      6739 MEMB     60       SAPC     H7R      HAL2     0.900000E-01   1.00800           0
      6740 MEMB     60       SAPC     H7S      HAL2     0.900000E-01   1.00800           0
      6741 MEMB     60       SAPC     C28      CEL1    -0.150000       12.0110           0
      6742 MEMB     60       SAPC     H8R      HEL1     0.150000       1.00800           0
      6743 MEMB     60       SAPC     C29      CEL1    -0.150000       12.0110           0
      6744 MEMB     60       SAPC     H9R      HEL1     0.150000       1.00800           0
      6745 MEMB     60       SAPC     C210     CTL2    -0.180000       12.0110           0
      6746 MEMB     60       SAPC     H10R     HAL2     0.900000E-01   1.00800           0
      6747 MEMB     60       SAPC     H10S     HAL2     0.900000E-01   1.00800           0
      6748 MEMB     60       SAPC     C211     CEL1    -0.150000       12.0110           0
      6749 MEMB     60       SAPC     H11R     HEL1     0.150000       1.00800           0
      6750 MEMB     60       SAPC     C212     CEL1    -0.150000       12.0110           0
      6751 MEMB     60       SAPC     H12R     HEL1     0.150000       1.00800           0
      6752 MEMB     60       SAPC     C213     CTL2    -0.180000       12.0110           0
      6753 MEMB     60       SAPC     H13R     HAL2     0.900000E-01   1.00800           0
      6754 MEMB     60       SAPC     H13S     HAL2     0.900000E-01   1.00800           0
      6755 MEMB     60       SAPC     C214     CEL1    -0.150000       12.0110           0
      6756 MEMB     60       SAPC     H14R     HEL1     0.150000       1.00800           0
      6757 MEMB     60       SAPC     C215     CEL1    -0.150000       12.0110           0
      6758 MEMB     60       SAPC     H15R     HEL1     0.150000       1.00800           0
      6759 MEMB     60       SAPC     C216     CTL2    -0.180000       12.0110           0
      6760 MEMB     60       SAPC     H16R     HAL2     0.900000E-01   1.00800           0
      6761 MEMB     60       SAPC     H16S     HAL2     0.900000E-01   1.00800           0
      6762 MEMB     60       SAPC     C217     CTL2    -0.180000       12.0110           0
      6763 MEMB     60       SAPC     H17R     HAL2     0.900000E-01   1.00800           0
      6764 MEMB     60       SAPC     H17S     HAL2     0.900000E-01   1.00800           0
      6765 MEMB     60       SAPC     C218     CTL2    -0.270000       12.0110           0
      6766 MEMB     60       SAPC     H18R     HAL2     0.900000E-01   1.00800           0
      6767 MEMB     60       SAPC     H18S     HAL2     0.900000E-01   1.00800           0
      6768 MEMB     60       SAPC     C219     CTL2    -0.180000       12.0110           0
      6769 MEMB     60       SAPC     H19R     HAL2     0.900000E-01   1.00800           0
      6770 MEMB     60       SAPC     H19S     HAL2     0.900000E-01   1.00800           0
      6771 MEMB     60       SAPC     C220     CTL3    -0.180000       12.0110           0
      6772 MEMB     60       SAPC     H20R     HAL3     0.900000E-01   1.00800           0
      6773 MEMB     60       SAPC     H20S     HAL3     0.900000E-01   1.00800           0
      6774 MEMB     60       SAPC     H20T     HAL3     0.900000E-01   1.00800           0
      6775 MEMB     60       SAPC     C33      CTL2    -0.180000       12.0110           0
      6776 MEMB     60       SAPC     H3X      HAL2     0.900000E-01   1.00800           0
      6777 MEMB     60       SAPC     H3Y      HAL2     0.900000E-01   1.00800           0
      6778 MEMB     60       SAPC     C34      CTL2    -0.180000       12.0110           0
      6779 MEMB     60       SAPC     H4X      HAL2     0.900000E-01   1.00800           0
      6780 MEMB     60       SAPC     H4Y      HAL2     0.900000E-01   1.00800           0
      6781 MEMB     60       SAPC     C35      CTL2    -0.180000       12.0110           0
      6782 MEMB     60       SAPC     H5X      HAL2     0.900000E-01   1.00800           0
      6783 MEMB     60       SAPC     H5Y      HAL2     0.900000E-01   1.00800           0
      6784 MEMB     60       SAPC     C36      CTL2    -0.180000       12.0110           0
      6785 MEMB     60       SAPC     H6X      HAL2     0.900000E-01   1.00800           0
      6786 MEMB     60       SAPC     H6Y      HAL2     0.900000E-01   1.00800           0
      6787 MEMB     60       SAPC     C37      CTL2    -0.180000       12.0110           0
      6788 MEMB     60       SAPC     H7X      HAL2     0.900000E-01   1.00800           0
      6789 MEMB     60       SAPC     H7Y      HAL2     0.900000E-01   1.00800           0
      6790 MEMB     60       SAPC     C38      CTL2    -0.180000       12.0110           0
      6791 MEMB     60       SAPC     H8X      HAL2     0.900000E-01   1.00800           0
      6792 MEMB     60       SAPC     H8Y      HAL2     0.900000E-01   1.00800           0
      6793 MEMB     60       SAPC     C39      CTL2    -0.180000       12.0110           0
      6794 MEMB     60       SAPC     H9X      HAL2     0.900000E-01   1.00800           0
      6795 MEMB     60       SAPC     H9Y      HAL2     0.900000E-01   1.00800           0
      6796 MEMB     60       SAPC     C310     CTL2    -0.180000       12.0110           0
      6797 MEMB     60       SAPC     H10X     HAL2     0.900000E-01   1.00800           0
      6798 MEMB     60       SAPC     H10Y     HAL2     0.900000E-01   1.00800           0
      6799 MEMB     60       SAPC     C311     CTL2    -0.180000       12.0110           0
      6800 MEMB     60       SAPC     H11X     HAL2     0.900000E-01   1.00800           0
      6801 MEMB     60       SAPC     H11Y     HAL2     0.900000E-01   1.00800           0
      6802 MEMB     60       SAPC     C312     CTL2    -0.180000       12.0110           0
      6803 MEMB     60       SAPC     H12X     HAL2     0.900000E-01   1.00800           0
      6804 MEMB     60       SAPC     H12Y     HAL2     0.900000E-01   1.00800           0
      6805 MEMB     60       SAPC     C313     CTL2    -0.180000       12.0110           0
      6806 MEMB     60       SAPC     H13X     HAL2     0.900000E-01   1.00800           0
      6807 MEMB     60       SAPC     H13Y     HAL2     0.900000E-01   1.00800           0
      6808 MEMB     60       SAPC     C314     CTL2    -0.180000       12.0110           0
      6809 MEMB     60       SAPC     H14X     HAL2     0.900000E-01   1.00800           0
      6810 MEMB     60       SAPC     H14Y     HAL2     0.900000E-01   1.00800           0
      6811 MEMB     60       SAPC     C315     CTL2    -0.180000       12.0110           0
      6812 MEMB     60       SAPC     H15X     HAL2     0.900000E-01   1.00800           0
      6813 MEMB     60       SAPC     H15Y     HAL2     0.900000E-01   1.00800           0
      6814 MEMB     60       SAPC     C316     CTL2    -0.180000       12.0110           0
      6815 MEMB     60       SAPC     H16X     HAL2     0.900000E-01   1.00800           0
      6816 MEMB     60       SAPC     H16Y     HAL2     0.900000E-01   1.00800           0
      6817 MEMB     60       SAPC     C317     CTL2    -0.180000       12.0110           0
      6818 MEMB     60       SAPC     H17X     HAL2     0.900000E-01   1.00800           0
      6819 MEMB     60       SAPC     H17Y     HAL2     0.900000E-01   1.00800           0
      6820 MEMB     60       SAPC     C318     CTL3    -0.270000       12.0110           0
      6821 MEMB     60       SAPC     H18X     HAL3     0.900000E-01   1.00800           0
      6822 MEMB     60       SAPC     H18Y     HAL3     0.900000E-01   1.00800           0
      6823 MEMB     60       SAPC     H18Z     HAL3     0.900000E-01   1.00800           0
      6824 MEMB     61       SAPE     N        NH3L    -0.300000       14.0070           0
      6825 MEMB     61       SAPE     HN1      HCL      0.330000       1.00800           0
      6826 MEMB     61       SAPE     HN2      HCL      0.330000       1.00800           0
      6827 MEMB     61       SAPE     HN3      HCL      0.330000       1.00800           0
      6828 MEMB     61       SAPE     C12      CTL2     0.130000       12.0110           0
      6829 MEMB     61       SAPE     H12A     HAL2     0.900000E-01   1.00800           0
      6830 MEMB     61       SAPE     H12B     HAL2     0.900000E-01   1.00800           0
      6831 MEMB     61       SAPE     C11      CTL2    -0.800000E-01   12.0110           0
      6832 MEMB     61       SAPE     H11A     HAL2     0.900000E-01   1.00800           0
      6833 MEMB     61       SAPE     H11B     HAL2     0.900000E-01   1.00800           0
      6834 MEMB     61       SAPE     P        PL        1.50000       30.9740           0
      6835 MEMB     61       SAPE     O13      O2L     -0.780000       15.9994           0
      6836 MEMB     61       SAPE     O14      O2L     -0.780000       15.9994           0
      6837 MEMB     61       SAPE     O12      OSLP    -0.570000       15.9994           0
      6838 MEMB     61       SAPE     O11      OSLP    -0.570000       15.9994           0
      6839 MEMB     61       SAPE     C1       CTL2    -0.800000E-01   12.0110           0
      6840 MEMB     61       SAPE     HA       HAL2     0.900000E-01   1.00800           0
      6841 MEMB     61       SAPE     HB       HAL2     0.900000E-01   1.00800           0
      6842 MEMB     61       SAPE     C2       CTL1     0.170000       12.0110           0
      6843 MEMB     61       SAPE     HS       HAL1     0.900000E-01   1.00800           0
      6844 MEMB     61       SAPE     O21      OSL     -0.490000       15.9994           0
      6845 MEMB     61       SAPE     C21      CL       0.900000       12.0110           0
      6846 MEMB     61       SAPE     O22      OBL     -0.630000       15.9994           0
      6847 MEMB     61       SAPE     C22      CTL2    -0.220000       12.0110           0
      6848 MEMB     61       SAPE     H2R      HAL2     0.900000E-01   1.00800           0
      6849 MEMB     61       SAPE     H2S      HAL2     0.900000E-01   1.00800           0
      6850 MEMB     61       SAPE     C3       CTL2     0.800000E-01   12.0110           0
      6851 MEMB     61       SAPE     HX       HAL2     0.900000E-01   1.00800           0
      6852 MEMB     61       SAPE     HY       HAL2     0.900000E-01   1.00800           0
      6853 MEMB     61       SAPE     O31      OSL     -0.490000       15.9994           0
      6854 MEMB     61       SAPE     C31      CL       0.900000       12.0110           0
      6855 MEMB     61       SAPE     O32      OBL     -0.630000       15.9994           0
      6856 MEMB     61       SAPE     C32      CTL2    -0.220000       12.0110           0
      6857 MEMB     61       SAPE     H2X      HAL2     0.900000E-01   1.00800           0
      6858 MEMB     61       SAPE     H2Y      HAL2     0.900000E-01   1.00800           0
      6859 MEMB     61       SAPE     C23      CTL2    -0.180000       12.0110           0
      6860 MEMB     61       SAPE     H3R      HAL2     0.900000E-01   1.00800           0
      6861 MEMB     61       SAPE     H3S      HAL2     0.900000E-01   1.00800           0
      6862 MEMB     61       SAPE     C24      CTL2    -0.180000       12.0110           0
      6863 MEMB     61       SAPE     H4R      HAL2     0.900000E-01   1.00800           0
      6864 MEMB     61       SAPE     H4S      HAL2     0.900000E-01   1.00800           0
      6865 MEMB     61       SAPE     C25      CEL1    -0.150000       12.0110           0
      6866 MEMB     61       SAPE     H5R      HEL1     0.150000       1.00800           0
      6867 MEMB     61       SAPE     C26      CEL1    -0.150000       12.0110           0
      6868 MEMB     61       SAPE     H6R      HEL1     0.150000       1.00800           0
      6869 MEMB     61       SAPE     C27      CTL2    -0.180000       12.0110           0
      6870 MEMB     61       SAPE     H7R      HAL2     0.900000E-01   1.00800           0
      6871 MEMB     61       SAPE     H7S      HAL2     0.900000E-01   1.00800           0
      6872 MEMB     61       SAPE     C28      CEL1    -0.150000       12.0110           0
      6873 MEMB     61       SAPE     H8R      HEL1     0.150000       1.00800           0
      6874 MEMB     61       SAPE     C29      CEL1    -0.150000       12.0110           0
      6875 MEMB     61       SAPE     H9R      HEL1     0.150000       1.00800           0
      6876 MEMB     61       SAPE     C210     CTL2    -0.180000       12.0110           0
      6877 MEMB     61       SAPE     H10R     HAL2     0.900000E-01   1.00800           0
      6878 MEMB     61       SAPE     H10S     HAL2     0.900000E-01   1.00800           0
      6879 MEMB     61       SAPE     C211     CEL1    -0.150000       12.0110           0
      6880 MEMB     61       SAPE     H11R     HEL1     0.150000       1.00800           0
      6881 MEMB     61       SAPE     C212     CEL1    -0.150000       12.0110           0
      6882 MEMB     61       SAPE     H12R     HEL1     0.150000       1.00800           0
      6883 MEMB     61       SAPE     C213     CTL2    -0.180000       12.0110           0
      6884 MEMB     61       SAPE     H13R     HAL2     0.900000E-01   1.00800           0
      6885 MEMB     61       SAPE     H13S     HAL2     0.900000E-01   1.00800           0
      6886 MEMB     61       SAPE     C214     CEL1    -0.150000       12.0110           0
      6887 MEMB     61       SAPE     H14R     HEL1     0.150000       1.00800           0
      6888 MEMB     61       SAPE     C215     CEL1    -0.150000       12.0110           0
      6889 MEMB     61       SAPE     H15R     HEL1     0.150000       1.00800           0
      6890 MEMB     61       SAPE     C216     CTL2    -0.180000       12.0110           0
      6891 MEMB     61       SAPE     H16R     HAL2     0.900000E-01   1.00800           0
      6892 MEMB     61       SAPE     H16S     HAL2     0.900000E-01   1.00800           0
      6893 MEMB     61       SAPE     C217     CTL2    -0.180000       12.0110           0
      6894 MEMB     61       SAPE     H17R     HAL2     0.900000E-01   1.00800           0
      6895 MEMB     61       SAPE     H17S     HAL2     0.900000E-01   1.00800           0
      6896 MEMB     61       SAPE     C218     CTL2    -0.180000       12.0110           0
      6897 MEMB     61       SAPE     H18R     HAL2     0.900000E-01   1.00800           0
      6898 MEMB     61       SAPE     H18S     HAL2     0.900000E-01   1.00800           0
      6899 MEMB     61       SAPE     C219     CTL2    -0.180000       12.0110           0
      6900 MEMB     61       SAPE     H19R     HAL2     0.900000E-01   1.00800           0
      6901 MEMB     61       SAPE     H19S     HAL2     0.900000E-01   1.00800           0
      6902 MEMB     61       SAPE     C220     CTL3    -0.270000       12.0110           0
      6903 MEMB     61       SAPE     H20R     HAL3     0.900000E-01   1.00800           0
      6904 MEMB     61       SAPE     H20S     HAL3     0.900000E-01   1.00800           0
      6905 MEMB     61       SAPE     H20T     HAL3     0.900000E-01   1.00800           0
      6906 MEMB     61       SAPE     C33      CTL2    -0.180000       12.0110           0
      6907 MEMB     61       SAPE     H3X      HAL2     0.900000E-01   1.00800           0
      6908 MEMB     61       SAPE     H3Y      HAL2     0.900000E-01   1.00800           0
      6909 MEMB     61       SAPE     C34      CTL2    -0.180000       12.0110           0
      6910 MEMB     61       SAPE     H4X      HAL2     0.900000E-01   1.00800           0
      6911 MEMB     61       SAPE     H4Y      HAL2     0.900000E-01   1.00800           0
      6912 MEMB     61       SAPE     C35      CTL2    -0.180000       12.0110           0
      6913 MEMB     61       SAPE     H5X      HAL2     0.900000E-01   1.00800           0
      6914 MEMB     61       SAPE     H5Y      HAL2     0.900000E-01   1.00800           0
      6915 MEMB     61       SAPE     C36      CTL2    -0.180000       12.0110           0
      6916 MEMB     61       SAPE     H6X      HAL2     0.900000E-01   1.00800           0
      6917 MEMB     61       SAPE     H6Y      HAL2     0.900000E-01   1.00800           0
      6918 MEMB     61       SAPE     C37      CTL2    -0.180000       12.0110           0
      6919 MEMB     61       SAPE     H7X      HAL2     0.900000E-01   1.00800           0
      6920 MEMB     61       SAPE     H7Y      HAL2     0.900000E-01   1.00800           0
      6921 MEMB     61       SAPE     C38      CTL2    -0.180000       12.0110           0
      6922 MEMB     61       SAPE     H8X      HAL2     0.900000E-01   1.00800           0
      6923 MEMB     61       SAPE     H8Y      HAL2     0.900000E-01   1.00800           0
      6924 MEMB     61       SAPE     C39      CTL2    -0.180000       12.0110           0
      6925 MEMB     61       SAPE     H9X      HAL2     0.900000E-01   1.00800           0
      6926 MEMB     61       SAPE     H9Y      HAL2     0.900000E-01   1.00800           0
      6927 MEMB     61       SAPE     C310     CTL2    -0.180000       12.0110           0
      6928 MEMB     61       SAPE     H10X     HAL2     0.900000E-01   1.00800           0
      6929 MEMB     61       SAPE     H10Y     HAL2     0.900000E-01   1.00800           0
      6930 MEMB     61       SAPE     C311     CTL2    -0.180000       12.0110           0
      6931 MEMB     61       SAPE     H11X     HAL2     0.900000E-01   1.00800           0
      6932 MEMB     61       SAPE     H11Y     HAL2     0.900000E-01   1.00800           0
      6933 MEMB     61       SAPE     C312     CTL2    -0.180000       12.0110           0
      6934 MEMB     61       SAPE     H12X     HAL2     0.900000E-01   1.00800           0
      6935 MEMB     61       SAPE     H12Y     HAL2     0.900000E-01   1.00800           0
      6936 MEMB     61       SAPE     C313     CTL2    -0.180000       12.0110           0
      6937 MEMB     61       SAPE     H13X     HAL2     0.900000E-01   1.00800           0
      6938 MEMB     61       SAPE     H13Y     HAL2     0.900000E-01   1.00800           0
      6939 MEMB     61       SAPE     C314     CTL2    -0.180000       12.0110           0
      6940 MEMB     61       SAPE     H14X     HAL2     0.900000E-01   1.00800           0
      6941 MEMB     61       SAPE     H14Y     HAL2     0.900000E-01   1.00800           0
      6942 MEMB     61       SAPE     C315     CTL2    -0.180000       12.0110           0
      6943 MEMB     61       SAPE     H15X     HAL2     0.900000E-01   1.00800           0
      6944 MEMB     61       SAPE     H15Y     HAL2     0.900000E-01   1.00800           0
      6945 MEMB     61       SAPE     C316     CTL2    -0.180000       12.0110           0
      6946 MEMB     61       SAPE     H16X     HAL2     0.900000E-01   1.00800           0
      6947 MEMB     61       SAPE     H16Y     HAL2     0.900000E-01   1.00800           0
      6948 MEMB     61       SAPE     C317     CTL2    -0.180000       12.0110           0
      6949 MEMB     61       SAPE     H17X     HAL2     0.900000E-01   1.00800           0
      6950 MEMB     61       SAPE     H17Y     HAL2     0.900000E-01   1.00800           0
      6951 MEMB     61       SAPE     C318     CTL3    -0.270000       12.0110           0
      6952 MEMB     61       SAPE     H18X     HAL3     0.900000E-01   1.00800           0
      6953 MEMB     61       SAPE     H18Y     HAL3     0.900000E-01   1.00800           0
      6954 MEMB     61       SAPE     H18Z     HAL3     0.900000E-01   1.00800           0
      6955 MEMB     62       SAPE     N        NH3L    -0.300000       14.0070           0
      6956 MEMB     62       SAPE     HN1      HCL      0.330000       1.00800           0
      6957 MEMB     62       SAPE     HN2      HCL      0.330000       1.00800           0
      6958 MEMB     62       SAPE     HN3      HCL      0.330000       1.00800           0
      6959 MEMB     62       SAPE     C12      CTL2     0.130000       12.0110           0
      6960 MEMB     62       SAPE     H12A     HAL2     0.900000E-01   1.00800           0
      6961 MEMB     62       SAPE     H12B     HAL2     0.900000E-01   1.00800           0
      6962 MEMB     62       SAPE     C11      CTL2    -0.800000E-01   12.0110           0
      6963 MEMB     62       SAPE     H11A     HAL2     0.900000E-01   1.00800           0
      6964 MEMB     62       SAPE     H11B     HAL2     0.900000E-01   1.00800           0
      6965 MEMB     62       SAPE     P        PL        1.50000       30.9740           0
      6966 MEMB     62       SAPE     O13      O2L     -0.780000       15.9994           0
      6967 MEMB     62       SAPE     O14      O2L     -0.780000       15.9994           0
      6968 MEMB     62       SAPE     O12      OSLP    -0.570000       15.9994           0
      6969 MEMB     62       SAPE     O11      OSLP    -0.570000       15.9994           0
      6970 MEMB     62       SAPE     C1       CTL2    -0.800000E-01   12.0110           0
      6971 MEMB     62       SAPE     HA       HAL2     0.900000E-01   1.00800           0
      6972 MEMB     62       SAPE     HB       HAL2     0.900000E-01   1.00800           0
      6973 MEMB     62       SAPE     C2       CTL1     0.170000       12.0110           0
      6974 MEMB     62       SAPE     HS       HAL1     0.900000E-01   1.00800           0
      6975 MEMB     62       SAPE     O21      OSL     -0.490000       15.9994           0
      6976 MEMB     62       SAPE     C21      CL       0.900000       12.0110           0
      6977 MEMB     62       SAPE     O22      OBL     -0.630000       15.9994           0
      6978 MEMB     62       SAPE     C22      CTL2    -0.220000       12.0110           0
      6979 MEMB     62       SAPE     H2R      HAL2     0.900000E-01   1.00800           0
      6980 MEMB     62       SAPE     H2S      HAL2     0.900000E-01   1.00800           0
      6981 MEMB     62       SAPE     C3       CTL2     0.800000E-01   12.0110           0
      6982 MEMB     62       SAPE     HX       HAL2     0.900000E-01   1.00800           0
      6983 MEMB     62       SAPE     HY       HAL2     0.900000E-01   1.00800           0
      6984 MEMB     62       SAPE     O31      OSL     -0.490000       15.9994           0
      6985 MEMB     62       SAPE     C31      CL       0.900000       12.0110           0
      6986 MEMB     62       SAPE     O32      OBL     -0.630000       15.9994           0
      6987 MEMB     62       SAPE     C32      CTL2    -0.220000       12.0110           0
      6988 MEMB     62       SAPE     H2X      HAL2     0.900000E-01   1.00800           0
      6989 MEMB     62       SAPE     H2Y      HAL2     0.900000E-01   1.00800           0
      6990 MEMB     62       SAPE     C23      CTL2    -0.180000       12.0110           0
      6991 MEMB     62       SAPE     H3R      HAL2     0.900000E-01   1.00800           0
      6992 MEMB     62       SAPE     H3S      HAL2     0.900000E-01   1.00800           0
      6993 MEMB     62       SAPE     C24      CTL2    -0.180000       12.0110           0
      6994 MEMB     62       SAPE     H4R      HAL2     0.900000E-01   1.00800           0
      6995 MEMB     62       SAPE     H4S      HAL2     0.900000E-01   1.00800           0
      6996 MEMB     62       SAPE     C25      CEL1    -0.150000       12.0110           0
      6997 MEMB     62       SAPE     H5R      HEL1     0.150000       1.00800           0
      6998 MEMB     62       SAPE     C26      CEL1    -0.150000       12.0110           0
      6999 MEMB     62       SAPE     H6R      HEL1     0.150000       1.00800           0
      7000 MEMB     62       SAPE     C27      CTL2    -0.180000       12.0110           0
      7001 MEMB     62       SAPE     H7R      HAL2     0.900000E-01   1.00800           0
      7002 MEMB     62       SAPE     H7S      HAL2     0.900000E-01   1.00800           0
      7003 MEMB     62       SAPE     C28      CEL1    -0.150000       12.0110           0
      7004 MEMB     62       SAPE     H8R      HEL1     0.150000       1.00800           0
      7005 MEMB     62       SAPE     C29      CEL1    -0.150000       12.0110           0
      7006 MEMB     62       SAPE     H9R      HEL1     0.150000       1.00800           0
      7007 MEMB     62       SAPE     C210     CTL2    -0.180000       12.0110           0
      7008 MEMB     62       SAPE     H10R     HAL2     0.900000E-01   1.00800           0
      7009 MEMB     62       SAPE     H10S     HAL2     0.900000E-01   1.00800           0
      7010 MEMB     62       SAPE     C211     CEL1    -0.150000       12.0110           0
      7011 MEMB     62       SAPE     H11R     HEL1     0.150000       1.00800           0
      7012 MEMB     62       SAPE     C212     CEL1    -0.150000       12.0110           0
      7013 MEMB     62       SAPE     H12R     HEL1     0.150000       1.00800           0
      7014 MEMB     62       SAPE     C213     CTL2    -0.180000       12.0110           0
      7015 MEMB     62       SAPE     H13R     HAL2     0.900000E-01   1.00800           0
      7016 MEMB     62       SAPE     H13S     HAL2     0.900000E-01   1.00800           0
      7017 MEMB     62       SAPE     C214     CEL1    -0.150000       12.0110           0
      7018 MEMB     62       SAPE     H14R     HEL1     0.150000       1.00800           0
      7019 MEMB     62       SAPE     C215     CEL1    -0.150000       12.0110           0
      7020 MEMB     62       SAPE     H15R     HEL1     0.150000       1.00800           0
      7021 MEMB     62       SAPE     C216     CTL2    -0.180000       12.0110           0
      7022 MEMB     62       SAPE     H16R     HAL2     0.900000E-01   1.00800           0
      7023 MEMB     62       SAPE     H16S     HAL2     0.900000E-01   1.00800           0
      7024 MEMB     62       SAPE     C217     CTL2    -0.180000       12.0110           0
      7025 MEMB     62       SAPE     H17R     HAL2     0.900000E-01   1.00800           0
      7026 MEMB     62       SAPE     H17S     HAL2     0.900000E-01   1.00800           0
      7027 MEMB     62       SAPE     C218     CTL2    -0.180000       12.0110           0
      7028 MEMB     62       SAPE     H18R     HAL2     0.900000E-01   1.00800           0
      7029 MEMB     62       SAPE     H18S     HAL2     0.900000E-01   1.00800           0
      7030 MEMB     62       SAPE     C219     CTL2    -0.180000       12.0110           0
      7031 MEMB     62       SAPE     H19R     HAL2     0.900000E-01   1.00800           0
      7032 MEMB     62       SAPE     H19S     HAL2     0.900000E-01   1.00800           0
      7033 MEMB     62       SAPE     C220     CTL3    -0.270000       12.0110           0
      7034 MEMB     62       SAPE     H20R     HAL3     0.900000E-01   1.00800           0
      7035 MEMB     62       SAPE     H20S     HAL3     0.900000E-01   1.00800           0
      7036 MEMB     62       SAPE     H20T     HAL3     0.900000E-01   1.00800           0
      7037 MEMB     62       SAPE     C33      CTL2    -0.180000       12.0110           0
      7038 MEMB     62       SAPE     H3X      HAL2     0.900000E-01   1.00800           0
      7039 MEMB     62       SAPE     H3Y      HAL2     0.900000E-01   1.00800           0
      7040 MEMB     62       SAPE     C34      CTL2    -0.180000       12.0110           0
      7041 MEMB     62       SAPE     H4X      HAL2     0.900000E-01   1.00800           0
      7042 MEMB     62       SAPE     H4Y      HAL2     0.900000E-01   1.00800           0
      7043 MEMB     62       SAPE     C35      CTL2    -0.180000       12.0110           0
      7044 MEMB     62       SAPE     H5X      HAL2     0.900000E-01   1.00800           0
      7045 MEMB     62       SAPE     H5Y      HAL2     0.900000E-01   1.00800           0
      7046 MEMB     62       SAPE     C36      CTL2    -0.180000       12.0110           0
      7047 MEMB     62       SAPE     H6X      HAL2     0.900000E-01   1.00800           0
      7048 MEMB     62       SAPE     H6Y      HAL2     0.900000E-01   1.00800           0
      7049 MEMB     62       SAPE     C37      CTL2    -0.180000       12.0110           0
      7050 MEMB     62       SAPE     H7X      HAL2     0.900000E-01   1.00800           0
      7051 MEMB     62       SAPE     H7Y      HAL2     0.900000E-01   1.00800           0
      7052 MEMB     62       SAPE     C38      CTL2    -0.180000       12.0110           0
      7053 MEMB     62       SAPE     H8X      HAL2     0.900000E-01   1.00800           0
      7054 MEMB     62       SAPE     H8Y      HAL2     0.900000E-01   1.00800           0
      7055 MEMB     62       SAPE     C39      CTL2    -0.180000       12.0110           0
      7056 MEMB     62       SAPE     H9X      HAL2     0.900000E-01   1.00800           0
      7057 MEMB     62       SAPE     H9Y      HAL2     0.900000E-01   1.00800           0
      7058 MEMB     62       SAPE     C310     CTL2    -0.180000       12.0110           0
      7059 MEMB     62       SAPE     H10X     HAL2     0.900000E-01   1.00800           0
      7060 MEMB     62       SAPE     H10Y     HAL2     0.900000E-01   1.00800           0
      7061 MEMB     62       SAPE     C311     CTL2    -0.180000       12.0110           0
      7062 MEMB     62       SAPE     H11X     HAL2     0.900000E-01   1.00800           0
      7063 MEMB     62       SAPE     H11Y     HAL2     0.900000E-01   1.00800           0
      7064 MEMB     62       SAPE     C312     CTL2    -0.180000       12.0110           0
      7065 MEMB     62       SAPE     H12X     HAL2     0.900000E-01   1.00800           0
      7066 MEMB     62       SAPE     H12Y     HAL2     0.900000E-01   1.00800           0
      7067 MEMB     62       SAPE     C313     CTL2    -0.180000       12.0110           0
      7068 MEMB     62       SAPE     H13X     HAL2     0.900000E-01   1.00800           0
      7069 MEMB     62       SAPE     H13Y     HAL2     0.900000E-01   1.00800           0
      7070 MEMB     62       SAPE     C314     CTL2    -0.180000       12.0110           0
      7071 MEMB     62       SAPE     H14X     HAL2     0.900000E-01   1.00800           0
      7072 MEMB     62       SAPE     H14Y     HAL2     0.900000E-01   1.00800           0
      7073 MEMB     62       SAPE     C315     CTL2    -0.180000       12.0110           0
      7074 MEMB     62       SAPE     H15X     HAL2     0.900000E-01   1.00800           0
      7075 MEMB     62       SAPE     H15Y     HAL2     0.900000E-01   1.00800           0
      7076 MEMB     62       SAPE     C316     CTL2    -0.180000       12.0110           0
      7077 MEMB     62       SAPE     H16X     HAL2     0.900000E-01   1.00800           0
      7078 MEMB     62       SAPE     H16Y     HAL2     0.900000E-01   1.00800           0
      7079 MEMB     62       SAPE     C317     CTL2    -0.180000       12.0110           0
      7080 MEMB     62       SAPE     H17X     HAL2     0.900000E-01   1.00800           0
      7081 MEMB     62       SAPE     H17Y     HAL2     0.900000E-01   1.00800           0
      7082 MEMB     62       SAPE     C318     CTL3    -0.270000       12.0110           0
      7083 MEMB     62       SAPE     H18X     HAL3     0.900000E-01   1.00800           0
      7084 MEMB     62       SAPE     H18Y     HAL3     0.900000E-01   1.00800           0
      7085 MEMB     62       SAPE     H18Z     HAL3     0.900000E-01   1.00800           0
      7086 MEMB     63       OSM      N        NTL     -0.600000       14.0070           0
      7087 MEMB     63       OSM      C15      CTL5    -0.350000       12.0110           0
      7088 MEMB     63       OSM      H15A     HL       0.250000       1.00800           0
      7089 MEMB     63       OSM      H15B     HL       0.250000       1.00800           0
      7090 MEMB     63       OSM      H15C     HL       0.250000       1.00800           0
      7091 MEMB     63       OSM      C14      CTL5    -0.350000       12.0110           0
      7092 MEMB     63       OSM      H14A     HL       0.250000       1.00800           0
      7093 MEMB     63       OSM      H14B     HL       0.250000       1.00800           0
      7094 MEMB     63       OSM      H14C     HL       0.250000       1.00800           0
      7095 MEMB     63       OSM      C13      CTL5    -0.350000       12.0110           0
      7096 MEMB     63       OSM      H13A     HL       0.250000       1.00800           0
      7097 MEMB     63       OSM      H13B     HL       0.250000       1.00800           0
      7098 MEMB     63       OSM      H13C     HL       0.250000       1.00800           0
      7099 MEMB     63       OSM      C12      CTL2    -0.100000       12.0110           0
      7100 MEMB     63       OSM      H12A     HL       0.250000       1.00800           0
      7101 MEMB     63       OSM      H12B     HL       0.250000       1.00800           0
      7102 MEMB     63       OSM      C11      CTL2    -0.800000E-01   12.0110           0
      7103 MEMB     63       OSM      H11A     HAL2     0.900000E-01   1.00800           0
      7104 MEMB     63       OSM      H11B     HAL2     0.900000E-01   1.00800           0
      7105 MEMB     63       OSM      P        PL        1.50000       30.9740           0
      7106 MEMB     63       OSM      O13      O2L     -0.780000       15.9994           0
      7107 MEMB     63       OSM      O14      O2L     -0.780000       15.9994           0
      7108 MEMB     63       OSM      O11      OSLP    -0.570000       15.9994           0
      7109 MEMB     63       OSM      O12      OSLP    -0.570000       15.9994           0
      7110 MEMB     63       OSM      C1S      CTL2    -0.800000E-01   12.0110           0
      7111 MEMB     63       OSM      H1S      HAL2     0.900000E-01   1.00800           0
      7112 MEMB     63       OSM      H1T      HAL2     0.900000E-01   1.00800           0
      7113 MEMB     63       OSM      NF       NHL     -0.700000       14.0070           0
      7114 MEMB     63       OSM      HNF      H        0.350000       1.00800           0
      7115 MEMB     63       OSM      C2S      CTL1     0.300000       12.0110           0
      7116 MEMB     63       OSM      H2S      HAL1     0.500000E-01   1.00800           0
      7117 MEMB     63       OSM      C3S      CTO1     0.500000       12.0110           0
      7118 MEMB     63       OSM      H3S      HAL1    -0.110000       1.00800           0
      7119 MEMB     63       OSM      O3       OHL     -0.690000       15.9994           0
      7120 MEMB     63       OSM      HO3      HOL      0.300000       1.00800           0
      7121 MEMB     63       OSM      C4S      CEL3    -0.150000       12.0110           0
      7122 MEMB     63       OSM      H4S      HEL1     0.150000       1.00800           0
      7123 MEMB     63       OSM      C5S      CEL3    -0.150000       12.0110           0
      7124 MEMB     63       OSM      H5S      HEL1     0.150000       1.00800           0
      7125 MEMB     63       OSM      C6S      CTL2    -0.180000       12.0110           0
      7126 MEMB     63       OSM      H6S      HAL2     0.900000E-01   1.00800           0
      7127 MEMB     63       OSM      H6T      HAL2     0.900000E-01   1.00800           0
      7128 MEMB     63       OSM      C7S      CTL2    -0.180000       12.0110           0
      7129 MEMB     63       OSM      H7S      HAL2     0.900000E-01   1.00800           0
      7130 MEMB     63       OSM      H7T      HAL2     0.900000E-01   1.00800           0
      7131 MEMB     63       OSM      C8S      CTL2    -0.180000       12.0110           0
      7132 MEMB     63       OSM      H8S      HAL2     0.900000E-01   1.00800           0
      7133 MEMB     63       OSM      H8T      HAL2     0.900000E-01   1.00800           0
      7134 MEMB     63       OSM      C9S      CTL2    -0.180000       12.0110           0
      7135 MEMB     63       OSM      H9S      HAL2     0.900000E-01   1.00800           0
      7136 MEMB     63       OSM      H9T      HAL2     0.900000E-01   1.00800           0
      7137 MEMB     63       OSM      C10S     CTL2    -0.180000       12.0110           0
      7138 MEMB     63       OSM      H10S     HAL2     0.900000E-01   1.00800           0
      7139 MEMB     63       OSM      H10T     HAL2     0.900000E-01   1.00800           0
      7140 MEMB     63       OSM      C11S     CTL2    -0.180000       12.0110           0
      7141 MEMB     63       OSM      H11S     HAL2     0.900000E-01   1.00800           0
      7142 MEMB     63       OSM      H11T     HAL2     0.900000E-01   1.00800           0
      7143 MEMB     63       OSM      C12S     CTL2    -0.180000       12.0110           0
      7144 MEMB     63       OSM      H12S     HAL2     0.900000E-01   1.00800           0
      7145 MEMB     63       OSM      H12T     HAL2     0.900000E-01   1.00800           0
      7146 MEMB     63       OSM      C13S     CTL2    -0.180000       12.0110           0
      7147 MEMB     63       OSM      H13S     HAL2     0.900000E-01   1.00800           0
      7148 MEMB     63       OSM      H13T     HAL2     0.900000E-01   1.00800           0
      7149 MEMB     63       OSM      C14S     CTL2    -0.180000       12.0110           0
      7150 MEMB     63       OSM      H14S     HAL2     0.900000E-01   1.00800           0
      7151 MEMB     63       OSM      H14T     HAL2     0.900000E-01   1.00800           0
      7152 MEMB     63       OSM      C15S     CTL2    -0.180000       12.0110           0
      7153 MEMB     63       OSM      H15S     HAL2     0.900000E-01   1.00800           0
      7154 MEMB     63       OSM      H15T     HAL2     0.900000E-01   1.00800           0
      7155 MEMB     63       OSM      C16S     CTL2    -0.180000       12.0110           0
      7156 MEMB     63       OSM      H16S     HAL2     0.900000E-01   1.00800           0
      7157 MEMB     63       OSM      H16T     HAL2     0.900000E-01   1.00800           0
      7158 MEMB     63       OSM      C17S     CTL2    -0.180000       12.0110           0
      7159 MEMB     63       OSM      H17S     HAL2     0.900000E-01   1.00800           0
      7160 MEMB     63       OSM      H17T     HAL2     0.900000E-01   1.00800           0
      7161 MEMB     63       OSM      C18S     CTL3    -0.270000       12.0110           0
      7162 MEMB     63       OSM      H18S     HAL3     0.900000E-01   1.00800           0
      7163 MEMB     63       OSM      H18T     HAL3     0.900000E-01   1.00800           0
      7164 MEMB     63       OSM      H18U     HAL3     0.900000E-01   1.00800           0
      7165 MEMB     63       OSM      C1F      C        0.550000       12.0110           0
      7166 MEMB     63       OSM      OF       O       -0.600000       15.9994           0
      7167 MEMB     63       OSM      C2F      CTL2    -0.700000E-01   12.0110           0
      7168 MEMB     63       OSM      H2F      HAL2     0.600000E-01   1.00800           0
      7169 MEMB     63       OSM      H2G      HAL2     0.600000E-01   1.00800           0
      7170 MEMB     63       OSM      C3F      CTL2    -0.180000       12.0110           0
      7171 MEMB     63       OSM      H3F      HAL2     0.900000E-01   1.00800           0
      7172 MEMB     63       OSM      H3G      HAL2     0.900000E-01   1.00800           0
      7173 MEMB     63       OSM      C4F      CTL2    -0.180000       12.0110           0
      7174 MEMB     63       OSM      H4F      HAL2     0.900000E-01   1.00800           0
      7175 MEMB     63       OSM      H4G      HAL2     0.900000E-01   1.00800           0
      7176 MEMB     63       OSM      C5F      CTL2    -0.180000       12.0110           0
      7177 MEMB     63       OSM      H5F      HAL2     0.900000E-01   1.00800           0
      7178 MEMB     63       OSM      H5G      HAL2     0.900000E-01   1.00800           0
      7179 MEMB     63       OSM      C6F      CTL2    -0.180000       12.0110           0
      7180 MEMB     63       OSM      H6F      HAL2     0.900000E-01   1.00800           0
      7181 MEMB     63       OSM      H6G      HAL2     0.900000E-01   1.00800           0
      7182 MEMB     63       OSM      C7F      CTL2    -0.180000       12.0110           0
      7183 MEMB     63       OSM      H7F      HAL2     0.900000E-01   1.00800           0
      7184 MEMB     63       OSM      H7G      HAL2     0.900000E-01   1.00800           0
      7185 MEMB     63       OSM      C8F      CTL2    -0.180000       12.0110           0
      7186 MEMB     63       OSM      H8F      HAL2     0.900000E-01   1.00800           0
      7187 MEMB     63       OSM      H8G      HAL2     0.900000E-01   1.00800           0
      7188 MEMB     63       OSM      C9F      CEL1    -0.150000       12.0110           0
      7189 MEMB     63       OSM      H9F      HEL1     0.150000       1.00800           0
      7190 MEMB     63       OSM      C10F     CEL1    -0.150000       12.0110           0
      7191 MEMB     63       OSM      H10F     HEL1     0.150000       1.00800           0
      7192 MEMB     63       OSM      C11F     CTL2    -0.180000       12.0110           0
      7193 MEMB     63       OSM      H11F     HAL2     0.900000E-01   1.00800           0
      7194 MEMB     63       OSM      H11G     HAL2     0.900000E-01   1.00800           0
      7195 MEMB     63       OSM      C12F     CTL2    -0.180000       12.0110           0
      7196 MEMB     63       OSM      H12F     HAL2     0.900000E-01   1.00800           0
      7197 MEMB     63       OSM      H12G     HAL2     0.900000E-01   1.00800           0
      7198 MEMB     63       OSM      C13F     CTL2    -0.180000       12.0110           0
      7199 MEMB     63       OSM      H13F     HAL2     0.900000E-01   1.00800           0
      7200 MEMB     63       OSM      H13G     HAL2     0.900000E-01   1.00800           0
      7201 MEMB     63       OSM      C14F     CTL2    -0.180000       12.0110           0
      7202 MEMB     63       OSM      H14F     HAL2     0.900000E-01   1.00800           0
      7203 MEMB     63       OSM      H14G     HAL2     0.900000E-01   1.00800           0
      7204 MEMB     63       OSM      C15F     CTL2    -0.180000       12.0110           0
      7205 MEMB     63       OSM      H15F     HAL2     0.900000E-01   1.00800           0
      7206 MEMB     63       OSM      H15G     HAL2     0.900000E-01   1.00800           0
      7207 MEMB     63       OSM      C16F     CTL2    -0.180000       12.0110           0
      7208 MEMB     63       OSM      H16F     HAL2     0.900000E-01   1.00800           0
      7209 MEMB     63       OSM      H16G     HAL2     0.900000E-01   1.00800           0
      7210 MEMB     63       OSM      C17F     CTL2    -0.180000       12.0110           0
      7211 MEMB     63       OSM      H17F     HAL2     0.900000E-01   1.00800           0
      7212 MEMB     63       OSM      H17G     HAL2     0.900000E-01   1.00800           0
      7213 MEMB     63       OSM      C18F     CTL3    -0.270000       12.0110           0
      7214 MEMB     63       OSM      H18F     HAL3     0.900000E-01   1.00800           0
      7215 MEMB     63       OSM      H18G     HAL3     0.900000E-01   1.00800           0
      7216 MEMB     63       OSM      H18H     HAL3     0.900000E-01   1.00800           0
      7217 MEMB     64       CHL1     C3       CRL1     0.140000       12.0110           0
      7218 MEMB     64       CHL1     H3       HGA1     0.900000E-01   1.00800           0
      7219 MEMB     64       CHL1     O3       OHL     -0.660000       15.9994           0
      7220 MEMB     64       CHL1     H3'      HOL      0.430000       1.00800           0
      7221 MEMB     64       CHL1     C4       CRL2    -0.180000       12.0110           0
      7222 MEMB     64       CHL1     H4A      HGA2     0.900000E-01   1.00800           0
      7223 MEMB     64       CHL1     H4B      HGA2     0.900000E-01   1.00800           0
      7224 MEMB     64       CHL1     C5       CEL1      0.00000       12.0110           0
      7225 MEMB     64       CHL1     C6       CEL1    -0.150000       12.0110           0
      7226 MEMB     64       CHL1     H6       HEL1     0.150000       1.00800           0
      7227 MEMB     64       CHL1     C7       CRL2    -0.180000       12.0110           0
      7228 MEMB     64       CHL1     H7A      HGA2     0.900000E-01   1.00800           0
      7229 MEMB     64       CHL1     H7B      HGA2     0.900000E-01   1.00800           0
      7230 MEMB     64       CHL1     C8       CRL1    -0.900000E-01   12.0110           0
      7231 MEMB     64       CHL1     H8       HGA1     0.900000E-01   1.00800           0
      7232 MEMB     64       CHL1     C14      CRL1    -0.900000E-01   12.0110           0
      7233 MEMB     64       CHL1     H14      HGA1     0.900000E-01   1.00800           0
      7234 MEMB     64       CHL1     C15      CRL2    -0.180000       12.0110           0
      7235 MEMB     64       CHL1     H15A     HGA2     0.900000E-01   1.00800           0
      7236 MEMB     64       CHL1     H15B     HGA2     0.900000E-01   1.00800           0
      7237 MEMB     64       CHL1     C16      CRL2    -0.180000       12.0110           0
      7238 MEMB     64       CHL1     H16A     HGA2     0.900000E-01   1.00800           0
      7239 MEMB     64       CHL1     H16B     HGA2     0.900000E-01   1.00800           0
      7240 MEMB     64       CHL1     C17      CRL1    -0.900000E-01   12.0110           0
      7241 MEMB     64       CHL1     H17      HGA1     0.900000E-01   1.00800           0
      7242 MEMB     64       CHL1     C13      CRL1      0.00000       12.0110           0
      7243 MEMB     64       CHL1     C18      CTL3    -0.270000       12.0110           0
      7244 MEMB     64       CHL1     H18A     HAL3     0.900000E-01   1.00800           0
      7245 MEMB     64       CHL1     H18B     HAL3     0.900000E-01   1.00800           0
      7246 MEMB     64       CHL1     H18C     HAL3     0.900000E-01   1.00800           0
      7247 MEMB     64       CHL1     C12      CRL2    -0.180000       12.0110           0
      7248 MEMB     64       CHL1     H12A     HGA2     0.900000E-01   1.00800           0
      7249 MEMB     64       CHL1     H12B     HGA2     0.900000E-01   1.00800           0
      7250 MEMB     64       CHL1     C11      CRL2    -0.180000       12.0110           0
      7251 MEMB     64       CHL1     H11A     HGA2     0.900000E-01   1.00800           0
      7252 MEMB     64       CHL1     H11B     HGA2     0.900000E-01   1.00800           0
      7253 MEMB     64       CHL1     C9       CRL1    -0.900000E-01   12.0110           0
      7254 MEMB     64       CHL1     H9       HGA1     0.900000E-01   1.00800           0
      7255 MEMB     64       CHL1     C10      CRL1      0.00000       12.0110           0
      7256 MEMB     64       CHL1     C19      CTL3    -0.270000       12.0110           0
      7257 MEMB     64       CHL1     H19A     HAL3     0.900000E-01   1.00800           0
      7258 MEMB     64       CHL1     H19B     HAL3     0.900000E-01   1.00800           0
      7259 MEMB     64       CHL1     H19C     HAL3     0.900000E-01   1.00800           0
      7260 MEMB     64       CHL1     C1       CRL2    -0.180000       12.0110           0
      7261 MEMB     64       CHL1     H1A      HGA2     0.900000E-01   1.00800           0
      7262 MEMB     64       CHL1     H1B      HGA2     0.900000E-01   1.00800           0
      7263 MEMB     64       CHL1     C2       CRL2    -0.180000       12.0110           0
      7264 MEMB     64       CHL1     H2A      HGA2     0.900000E-01   1.00800           0
      7265 MEMB     64       CHL1     H2B      HGA2     0.900000E-01   1.00800           0
      7266 MEMB     64       CHL1     C20      CTL1    -0.900000E-01   12.0110           0
      7267 MEMB     64       CHL1     H20      HAL1     0.900000E-01   1.00800           0
      7268 MEMB     64       CHL1     C21      CTL3    -0.270000       12.0110           0
      7269 MEMB     64       CHL1     H21A     HAL3     0.900000E-01   1.00800           0
      7270 MEMB     64       CHL1     H21B     HAL3     0.900000E-01   1.00800           0
      7271 MEMB     64       CHL1     H21C     HAL3     0.900000E-01   1.00800           0
      7272 MEMB     64       CHL1     C22      CTL2    -0.180000       12.0110           0
      7273 MEMB     64       CHL1     H22A     HAL2     0.900000E-01   1.00800           0
      7274 MEMB     64       CHL1     H22B     HAL2     0.900000E-01   1.00800           0
      7275 MEMB     64       CHL1     C23      CTL2    -0.180000       12.0110           0
      7276 MEMB     64       CHL1     H23A     HAL2     0.900000E-01   1.00800           0
      7277 MEMB     64       CHL1     H23B     HAL2     0.900000E-01   1.00800           0
      7278 MEMB     64       CHL1     C24      CTL2    -0.180000       12.0110           0
      7279 MEMB     64       CHL1     H24A     HAL2     0.900000E-01   1.00800           0
      7280 MEMB     64       CHL1     H24B     HAL2     0.900000E-01   1.00800           0
      7281 MEMB     64       CHL1     C25      CTL1    -0.900000E-01   12.0110           0
      7282 MEMB     64       CHL1     H25      HAL1     0.900000E-01   1.00800           0
      7283 MEMB     64       CHL1     C26      CTL3    -0.270000       12.0110           0
      7284 MEMB     64       CHL1     H26A     HAL3     0.900000E-01   1.00800           0
      7285 MEMB     64       CHL1     H26B     HAL3     0.900000E-01   1.00800           0
      7286 MEMB     64       CHL1     H26C     HAL3     0.900000E-01   1.00800           0
      7287 MEMB     64       CHL1     C27      CTL3    -0.270000       12.0110           0
      7288 MEMB     64       CHL1     H27A     HAL3     0.900000E-01   1.00800           0
      7289 MEMB     64       CHL1     H27B     HAL3     0.900000E-01   1.00800           0
      7290 MEMB     64       CHL1     H27C     HAL3     0.900000E-01   1.00800           0
      7291 MEMB     65       CHL1     C3       CRL1     0.140000       12.0110           0
      7292 MEMB     65       CHL1     H3       HGA1     0.900000E-01   1.00800           0
      7293 MEMB     65       CHL1     O3       OHL     -0.660000       15.9994           0
      7294 MEMB     65       CHL1     H3'      HOL      0.430000       1.00800           0
      7295 MEMB     65       CHL1     C4       CRL2    -0.180000       12.0110           0
      7296 MEMB     65       CHL1     H4A      HGA2     0.900000E-01   1.00800           0
      7297 MEMB     65       CHL1     H4B      HGA2     0.900000E-01   1.00800           0
      7298 MEMB     65       CHL1     C5       CEL1      0.00000       12.0110           0
      7299 MEMB     65       CHL1     C6       CEL1    -0.150000       12.0110           0
      7300 MEMB     65       CHL1     H6       HEL1     0.150000       1.00800           0
      7301 MEMB     65       CHL1     C7       CRL2    -0.180000       12.0110           0
      7302 MEMB     65       CHL1     H7A      HGA2     0.900000E-01   1.00800           0
      7303 MEMB     65       CHL1     H7B      HGA2     0.900000E-01   1.00800           0
      7304 MEMB     65       CHL1     C8       CRL1    -0.900000E-01   12.0110           0
      7305 MEMB     65       CHL1     H8       HGA1     0.900000E-01   1.00800           0
      7306 MEMB     65       CHL1     C14      CRL1    -0.900000E-01   12.0110           0
      7307 MEMB     65       CHL1     H14      HGA1     0.900000E-01   1.00800           0
      7308 MEMB     65       CHL1     C15      CRL2    -0.180000       12.0110           0
      7309 MEMB     65       CHL1     H15A     HGA2     0.900000E-01   1.00800           0
      7310 MEMB     65       CHL1     H15B     HGA2     0.900000E-01   1.00800           0
      7311 MEMB     65       CHL1     C16      CRL2    -0.180000       12.0110           0
      7312 MEMB     65       CHL1     H16A     HGA2     0.900000E-01   1.00800           0
      7313 MEMB     65       CHL1     H16B     HGA2     0.900000E-01   1.00800           0
      7314 MEMB     65       CHL1     C17      CRL1    -0.900000E-01   12.0110           0
      7315 MEMB     65       CHL1     H17      HGA1     0.900000E-01   1.00800           0
      7316 MEMB     65       CHL1     C13      CRL1      0.00000       12.0110           0
      7317 MEMB     65       CHL1     C18      CTL3    -0.270000       12.0110           0
      7318 MEMB     65       CHL1     H18A     HAL3     0.900000E-01   1.00800           0
      7319 MEMB     65       CHL1     H18B     HAL3     0.900000E-01   1.00800           0
      7320 MEMB     65       CHL1     H18C     HAL3     0.900000E-01   1.00800           0
      7321 MEMB     65       CHL1     C12      CRL2    -0.180000       12.0110           0
      7322 MEMB     65       CHL1     H12A     HGA2     0.900000E-01   1.00800           0
      7323 MEMB     65       CHL1     H12B     HGA2     0.900000E-01   1.00800           0
      7324 MEMB     65       CHL1     C11      CRL2    -0.180000       12.0110           0
      7325 MEMB     65       CHL1     H11A     HGA2     0.900000E-01   1.00800           0
      7326 MEMB     65       CHL1     H11B     HGA2     0.900000E-01   1.00800           0
      7327 MEMB     65       CHL1     C9       CRL1    -0.900000E-01   12.0110           0
      7328 MEMB     65       CHL1     H9       HGA1     0.900000E-01   1.00800           0
      7329 MEMB     65       CHL1     C10      CRL1      0.00000       12.0110           0
      7330 MEMB     65       CHL1     C19      CTL3    -0.270000       12.0110           0
      7331 MEMB     65       CHL1     H19A     HAL3     0.900000E-01   1.00800           0
      7332 MEMB     65       CHL1     H19B     HAL3     0.900000E-01   1.00800           0
      7333 MEMB     65       CHL1     H19C     HAL3     0.900000E-01   1.00800           0
      7334 MEMB     65       CHL1     C1       CRL2    -0.180000       12.0110           0
      7335 MEMB     65       CHL1     H1A      HGA2     0.900000E-01   1.00800           0
      7336 MEMB     65       CHL1     H1B      HGA2     0.900000E-01   1.00800           0
      7337 MEMB     65       CHL1     C2       CRL2    -0.180000       12.0110           0
      7338 MEMB     65       CHL1     H2A      HGA2     0.900000E-01   1.00800           0
      7339 MEMB     65       CHL1     H2B      HGA2     0.900000E-01   1.00800           0
      7340 MEMB     65       CHL1     C20      CTL1    -0.900000E-01   12.0110           0
      7341 MEMB     65       CHL1     H20      HAL1     0.900000E-01   1.00800           0
      7342 MEMB     65       CHL1     C21      CTL3    -0.270000       12.0110           0
      7343 MEMB     65       CHL1     H21A     HAL3     0.900000E-01   1.00800           0
      7344 MEMB     65       CHL1     H21B     HAL3     0.900000E-01   1.00800           0
      7345 MEMB     65       CHL1     H21C     HAL3     0.900000E-01   1.00800           0
      7346 MEMB     65       CHL1     C22      CTL2    -0.180000       12.0110           0
      7347 MEMB     65       CHL1     H22A     HAL2     0.900000E-01   1.00800           0
      7348 MEMB     65       CHL1     H22B     HAL2     0.900000E-01   1.00800           0
      7349 MEMB     65       CHL1     C23      CTL2    -0.180000       12.0110           0
      7350 MEMB     65       CHL1     H23A     HAL2     0.900000E-01   1.00800           0
      7351 MEMB     65       CHL1     H23B     HAL2     0.900000E-01   1.00800           0
      7352 MEMB     65       CHL1     C24      CTL2    -0.180000       12.0110           0
      7353 MEMB     65       CHL1     H24A     HAL2     0.900000E-01   1.00800           0
      7354 MEMB     65       CHL1     H24B     HAL2     0.900000E-01   1.00800           0
      7355 MEMB     65       CHL1     C25      CTL1    -0.900000E-01   12.0110           0
      7356 MEMB     65       CHL1     H25      HAL1     0.900000E-01   1.00800           0
      7357 MEMB     65       CHL1     C26      CTL3    -0.270000       12.0110           0
      7358 MEMB     65       CHL1     H26A     HAL3     0.900000E-01   1.00800           0
      7359 MEMB     65       CHL1     H26B     HAL3     0.900000E-01   1.00800           0
      7360 MEMB     65       CHL1     H26C     HAL3     0.900000E-01   1.00800           0
      7361 MEMB     65       CHL1     C27      CTL3    -0.270000       12.0110           0
      7362 MEMB     65       CHL1     H27A     HAL3     0.900000E-01   1.00800           0
      7363 MEMB     65       CHL1     H27B     HAL3     0.900000E-01   1.00800           0
      7364 MEMB     65       CHL1     H27C     HAL3     0.900000E-01   1.00800           0
      7365 MEMB     66       SAPS     N        NH3L    -0.300000       14.0070           0
      7366 MEMB     66       SAPS     HN1      HCL      0.330000       1.00800           0
      7367 MEMB     66       SAPS     HN2      HCL      0.330000       1.00800           0
      7368 MEMB     66       SAPS     HN3      HCL      0.330000       1.00800           0
      7369 MEMB     66       SAPS     C12      CTL1     0.210000       12.0110           0
      7370 MEMB     66       SAPS     H12A     HBL      0.100000       1.00800           0
      7371 MEMB     66       SAPS     C13      CCL      0.340000       12.0110           0
      7372 MEMB     66       SAPS     O13A     OCL     -0.670000       15.9994           0
      7373 MEMB     66       SAPS     O13B     OCL     -0.670000       15.9994           0
      7374 MEMB     66       SAPS     C11      CTL2    -0.800000E-01   12.0110           0
      7375 MEMB     66       SAPS     H11A     HAL2     0.900000E-01   1.00800           0
      7376 MEMB     66       SAPS     H11B     HAL2     0.900000E-01   1.00800           0
      7377 MEMB     66       SAPS     P        PL        1.50000       30.9740           0
      7378 MEMB     66       SAPS     O13      O2L     -0.780000       15.9994           0
      7379 MEMB     66       SAPS     O14      O2L     -0.780000       15.9994           0
      7380 MEMB     66       SAPS     O12      OSLP    -0.570000       15.9994           0
      7381 MEMB     66       SAPS     O11      OSLP    -0.570000       15.9994           0
      7382 MEMB     66       SAPS     C1       CTL2    -0.800000E-01   12.0110           0
      7383 MEMB     66       SAPS     HA       HAL2     0.900000E-01   1.00800           0
      7384 MEMB     66       SAPS     HB       HAL2     0.900000E-01   1.00800           0
      7385 MEMB     66       SAPS     C2       CTL1     0.170000       12.0110           0
      7386 MEMB     66       SAPS     HS       HAL1     0.900000E-01   1.00800           0
      7387 MEMB     66       SAPS     O21      OSL     -0.490000       15.9994           0
      7388 MEMB     66       SAPS     C21      CL       0.900000       12.0110           0
      7389 MEMB     66       SAPS     O22      OBL     -0.630000       15.9994           0
      7390 MEMB     66       SAPS     C22      CTL2    -0.220000       12.0110           0
      7391 MEMB     66       SAPS     H2R      HAL2     0.900000E-01   1.00800           0
      7392 MEMB     66       SAPS     H2S      HAL2     0.900000E-01   1.00800           0
      7393 MEMB     66       SAPS     C3       CTL2     0.800000E-01   12.0110           0
      7394 MEMB     66       SAPS     HX       HAL2     0.900000E-01   1.00800           0
      7395 MEMB     66       SAPS     HY       HAL2     0.900000E-01   1.00800           0
      7396 MEMB     66       SAPS     O31      OSL     -0.490000       15.9994           0
      7397 MEMB     66       SAPS     C31      CL       0.900000       12.0110           0
      7398 MEMB     66       SAPS     O32      OBL     -0.630000       15.9994           0
      7399 MEMB     66       SAPS     C32      CTL2    -0.220000       12.0110           0
      7400 MEMB     66       SAPS     H2X      HAL2     0.900000E-01   1.00800           0
      7401 MEMB     66       SAPS     H2Y      HAL2     0.900000E-01   1.00800           0
      7402 MEMB     66       SAPS     C23      CTL2    -0.180000       12.0110           0
      7403 MEMB     66       SAPS     H3R      HAL2     0.900000E-01   1.00800           0
      7404 MEMB     66       SAPS     H3S      HAL2     0.900000E-01   1.00800           0
      7405 MEMB     66       SAPS     C24      CTL2    -0.180000       12.0110           0
      7406 MEMB     66       SAPS     H4R      HAL2     0.900000E-01   1.00800           0
      7407 MEMB     66       SAPS     H4S      HAL2     0.900000E-01   1.00800           0
      7408 MEMB     66       SAPS     C25      CEL1    -0.150000       12.0110           0
      7409 MEMB     66       SAPS     H5R      HEL1     0.150000       1.00800           0
      7410 MEMB     66       SAPS     C26      CEL1    -0.150000       12.0110           0
      7411 MEMB     66       SAPS     H6R      HEL1     0.150000       1.00800           0
      7412 MEMB     66       SAPS     C27      CTL2    -0.180000       12.0110           0
      7413 MEMB     66       SAPS     H7R      HAL2     0.900000E-01   1.00800           0
      7414 MEMB     66       SAPS     H7S      HAL2     0.900000E-01   1.00800           0
      7415 MEMB     66       SAPS     C28      CEL1    -0.150000       12.0110           0
      7416 MEMB     66       SAPS     H8R      HEL1     0.150000       1.00800           0
      7417 MEMB     66       SAPS     C29      CEL1    -0.150000       12.0110           0
      7418 MEMB     66       SAPS     H9R      HEL1     0.150000       1.00800           0
      7419 MEMB     66       SAPS     C210     CTL2    -0.180000       12.0110           0
      7420 MEMB     66       SAPS     H10R     HAL2     0.900000E-01   1.00800           0
      7421 MEMB     66       SAPS     H10S     HAL2     0.900000E-01   1.00800           0
      7422 MEMB     66       SAPS     C211     CEL1    -0.150000       12.0110           0
      7423 MEMB     66       SAPS     H11R     HEL1     0.150000       1.00800           0
      7424 MEMB     66       SAPS     C212     CEL1    -0.150000       12.0110           0
      7425 MEMB     66       SAPS     H12R     HEL1     0.150000       1.00800           0
      7426 MEMB     66       SAPS     C213     CTL2    -0.180000       12.0110           0
      7427 MEMB     66       SAPS     H13R     HAL2     0.900000E-01   1.00800           0
      7428 MEMB     66       SAPS     H13S     HAL2     0.900000E-01   1.00800           0
      7429 MEMB     66       SAPS     C214     CEL1    -0.150000       12.0110           0
      7430 MEMB     66       SAPS     H14R     HEL1     0.150000       1.00800           0
      7431 MEMB     66       SAPS     C215     CEL1    -0.150000       12.0110           0
      7432 MEMB     66       SAPS     H15R     HEL1     0.150000       1.00800           0
      7433 MEMB     66       SAPS     C216     CTL2    -0.180000       12.0110           0
      7434 MEMB     66       SAPS     H16R     HAL2     0.900000E-01   1.00800           0
      7435 MEMB     66       SAPS     H16S     HAL2     0.900000E-01   1.00800           0
      7436 MEMB     66       SAPS     C217     CTL2    -0.180000       12.0110           0
      7437 MEMB     66       SAPS     H17R     HAL2     0.900000E-01   1.00800           0
      7438 MEMB     66       SAPS     H17S     HAL2     0.900000E-01   1.00800           0
      7439 MEMB     66       SAPS     C218     CTL2    -0.180000       12.0110           0
      7440 MEMB     66       SAPS     H18R     HAL2     0.900000E-01   1.00800           0
      7441 MEMB     66       SAPS     H18S     HAL2     0.900000E-01   1.00800           0
      7442 MEMB     66       SAPS     C219     CTL2    -0.180000       12.0110           0
      7443 MEMB     66       SAPS     H19R     HAL2     0.900000E-01   1.00800           0
      7444 MEMB     66       SAPS     H19S     HAL2     0.900000E-01   1.00800           0
      7445 MEMB     66       SAPS     C220     CTL3    -0.270000       12.0110           0
      7446 MEMB     66       SAPS     H20R     HAL3     0.900000E-01   1.00800           0
      7447 MEMB     66       SAPS     H20S     HAL3     0.900000E-01   1.00800           0
      7448 MEMB     66       SAPS     H20T     HAL3     0.900000E-01   1.00800           0
      7449 MEMB     66       SAPS     C33      CTL2    -0.180000       12.0110           0
      7450 MEMB     66       SAPS     H3X      HAL2     0.900000E-01   1.00800           0
      7451 MEMB     66       SAPS     H3Y      HAL2     0.900000E-01   1.00800           0
      7452 MEMB     66       SAPS     C34      CTL2    -0.180000       12.0110           0
      7453 MEMB     66       SAPS     H4X      HAL2     0.900000E-01   1.00800           0
      7454 MEMB     66       SAPS     H4Y      HAL2     0.900000E-01   1.00800           0
      7455 MEMB     66       SAPS     C35      CTL2    -0.180000       12.0110           0
      7456 MEMB     66       SAPS     H5X      HAL2     0.900000E-01   1.00800           0
      7457 MEMB     66       SAPS     H5Y      HAL2     0.900000E-01   1.00800           0
      7458 MEMB     66       SAPS     C36      CTL2    -0.180000       12.0110           0
      7459 MEMB     66       SAPS     H6X      HAL2     0.900000E-01   1.00800           0
      7460 MEMB     66       SAPS     H6Y      HAL2     0.900000E-01   1.00800           0
      7461 MEMB     66       SAPS     C37      CTL2    -0.180000       12.0110           0
      7462 MEMB     66       SAPS     H7X      HAL2     0.900000E-01   1.00800           0
      7463 MEMB     66       SAPS     H7Y      HAL2     0.900000E-01   1.00800           0
      7464 MEMB     66       SAPS     C38      CTL2    -0.180000       12.0110           0
      7465 MEMB     66       SAPS     H8X      HAL2     0.900000E-01   1.00800           0
      7466 MEMB     66       SAPS     H8Y      HAL2     0.900000E-01   1.00800           0
      7467 MEMB     66       SAPS     C39      CTL2    -0.180000       12.0110           0
      7468 MEMB     66       SAPS     H9X      HAL2     0.900000E-01   1.00800           0
      7469 MEMB     66       SAPS     H9Y      HAL2     0.900000E-01   1.00800           0
      7470 MEMB     66       SAPS     C310     CTL2    -0.180000       12.0110           0
      7471 MEMB     66       SAPS     H10X     HAL2     0.900000E-01   1.00800           0
      7472 MEMB     66       SAPS     H10Y     HAL2     0.900000E-01   1.00800           0
      7473 MEMB     66       SAPS     C311     CTL2    -0.180000       12.0110           0
      7474 MEMB     66       SAPS     H11X     HAL2     0.900000E-01   1.00800           0
      7475 MEMB     66       SAPS     H11Y     HAL2     0.900000E-01   1.00800           0
      7476 MEMB     66       SAPS     C312     CTL2    -0.180000       12.0110           0
      7477 MEMB     66       SAPS     H12X     HAL2     0.900000E-01   1.00800           0
      7478 MEMB     66       SAPS     H12Y     HAL2     0.900000E-01   1.00800           0
      7479 MEMB     66       SAPS     C313     CTL2    -0.180000       12.0110           0
      7480 MEMB     66       SAPS     H13X     HAL2     0.900000E-01   1.00800           0
      7481 MEMB     66       SAPS     H13Y     HAL2     0.900000E-01   1.00800           0
      7482 MEMB     66       SAPS     C314     CTL2    -0.180000       12.0110           0
      7483 MEMB     66       SAPS     H14X     HAL2     0.900000E-01   1.00800           0
      7484 MEMB     66       SAPS     H14Y     HAL2     0.900000E-01   1.00800           0
      7485 MEMB     66       SAPS     C315     CTL2    -0.180000       12.0110           0
      7486 MEMB     66       SAPS     H15X     HAL2     0.900000E-01   1.00800           0
      7487 MEMB     66       SAPS     H15Y     HAL2     0.900000E-01   1.00800           0
      7488 MEMB     66       SAPS     C316     CTL2    -0.180000       12.0110           0
      7489 MEMB     66       SAPS     H16X     HAL2     0.900000E-01   1.00800           0
      7490 MEMB     66       SAPS     H16Y     HAL2     0.900000E-01   1.00800           0
      7491 MEMB     66       SAPS     C317     CTL2    -0.180000       12.0110           0
      7492 MEMB     66       SAPS     H17X     HAL2     0.900000E-01   1.00800           0
      7493 MEMB     66       SAPS     H17Y     HAL2     0.900000E-01   1.00800           0
      7494 MEMB     66       SAPS     C318     CTL3    -0.270000       12.0110           0
      7495 MEMB     66       SAPS     H18X     HAL3     0.900000E-01   1.00800           0
      7496 MEMB     66       SAPS     H18Y     HAL3     0.900000E-01   1.00800           0
      7497 MEMB     66       SAPS     H18Z     HAL3     0.900000E-01   1.00800           0
      7498 MEMB     67       CHL1     C3       CRL1     0.140000       12.0110           0
      7499 MEMB     67       CHL1     H3       HGA1     0.900000E-01   1.00800           0
      7500 MEMB     67       CHL1     O3       OHL     -0.660000       15.9994           0
      7501 MEMB     67       CHL1     H3'      HOL      0.430000       1.00800           0
      7502 MEMB     67       CHL1     C4       CRL2    -0.180000       12.0110           0
      7503 MEMB     67       CHL1     H4A      HGA2     0.900000E-01   1.00800           0
      7504 MEMB     67       CHL1     H4B      HGA2     0.900000E-01   1.00800           0
      7505 MEMB     67       CHL1     C5       CEL1      0.00000       12.0110           0
      7506 MEMB     67       CHL1     C6       CEL1    -0.150000       12.0110           0
      7507 MEMB     67       CHL1     H6       HEL1     0.150000       1.00800           0
      7508 MEMB     67       CHL1     C7       CRL2    -0.180000       12.0110           0
      7509 MEMB     67       CHL1     H7A      HGA2     0.900000E-01   1.00800           0
      7510 MEMB     67       CHL1     H7B      HGA2     0.900000E-01   1.00800           0
      7511 MEMB     67       CHL1     C8       CRL1    -0.900000E-01   12.0110           0
      7512 MEMB     67       CHL1     H8       HGA1     0.900000E-01   1.00800           0
      7513 MEMB     67       CHL1     C14      CRL1    -0.900000E-01   12.0110           0
      7514 MEMB     67       CHL1     H14      HGA1     0.900000E-01   1.00800           0
      7515 MEMB     67       CHL1     C15      CRL2    -0.180000       12.0110           0
      7516 MEMB     67       CHL1     H15A     HGA2     0.900000E-01   1.00800           0
      7517 MEMB     67       CHL1     H15B     HGA2     0.900000E-01   1.00800           0
      7518 MEMB     67       CHL1     C16      CRL2    -0.180000       12.0110           0
      7519 MEMB     67       CHL1     H16A     HGA2     0.900000E-01   1.00800           0
      7520 MEMB     67       CHL1     H16B     HGA2     0.900000E-01   1.00800           0
      7521 MEMB     67       CHL1     C17      CRL1    -0.900000E-01   12.0110           0
      7522 MEMB     67       CHL1     H17      HGA1     0.900000E-01   1.00800           0
      7523 MEMB     67       CHL1     C13      CRL1      0.00000       12.0110           0
      7524 MEMB     67       CHL1     C18      CTL3    -0.270000       12.0110           0
      7525 MEMB     67       CHL1     H18A     HAL3     0.900000E-01   1.00800           0
      7526 MEMB     67       CHL1     H18B     HAL3     0.900000E-01   1.00800           0
      7527 MEMB     67       CHL1     H18C     HAL3     0.900000E-01   1.00800           0
      7528 MEMB     67       CHL1     C12      CRL2    -0.180000       12.0110           0
      7529 MEMB     67       CHL1     H12A     HGA2     0.900000E-01   1.00800           0
      7530 MEMB     67       CHL1     H12B     HGA2     0.900000E-01   1.00800           0
      7531 MEMB     67       CHL1     C11      CRL2    -0.180000       12.0110           0
      7532 MEMB     67       CHL1     H11A     HGA2     0.900000E-01   1.00800           0
      7533 MEMB     67       CHL1     H11B     HGA2     0.900000E-01   1.00800           0
      7534 MEMB     67       CHL1     C9       CRL1    -0.900000E-01   12.0110           0
      7535 MEMB     67       CHL1     H9       HGA1     0.900000E-01   1.00800           0
      7536 MEMB     67       CHL1     C10      CRL1      0.00000       12.0110           0
      7537 MEMB     67       CHL1     C19      CTL3    -0.270000       12.0110           0
      7538 MEMB     67       CHL1     H19A     HAL3     0.900000E-01   1.00800           0
      7539 MEMB     67       CHL1     H19B     HAL3     0.900000E-01   1.00800           0
      7540 MEMB     67       CHL1     H19C     HAL3     0.900000E-01   1.00800           0
      7541 MEMB     67       CHL1     C1       CRL2    -0.180000       12.0110           0
      7542 MEMB     67       CHL1     H1A      HGA2     0.900000E-01   1.00800           0
      7543 MEMB     67       CHL1     H1B      HGA2     0.900000E-01   1.00800           0
      7544 MEMB     67       CHL1     C2       CRL2    -0.180000       12.0110           0
      7545 MEMB     67       CHL1     H2A      HGA2     0.900000E-01   1.00800           0
      7546 MEMB     67       CHL1     H2B      HGA2     0.900000E-01   1.00800           0
      7547 MEMB     67       CHL1     C20      CTL1    -0.900000E-01   12.0110           0
      7548 MEMB     67       CHL1     H20      HAL1     0.900000E-01   1.00800           0
      7549 MEMB     67       CHL1     C21      CTL3    -0.270000       12.0110           0
      7550 MEMB     67       CHL1     H21A     HAL3     0.900000E-01   1.00800           0
      7551 MEMB     67       CHL1     H21B     HAL3     0.900000E-01   1.00800           0
      7552 MEMB     67       CHL1     H21C     HAL3     0.900000E-01   1.00800           0
      7553 MEMB     67       CHL1     C22      CTL2    -0.180000       12.0110           0
      7554 MEMB     67       CHL1     H22A     HAL2     0.900000E-01   1.00800           0
      7555 MEMB     67       CHL1     H22B     HAL2     0.900000E-01   1.00800           0
      7556 MEMB     67       CHL1     C23      CTL2    -0.180000       12.0110           0
      7557 MEMB     67       CHL1     H23A     HAL2     0.900000E-01   1.00800           0
      7558 MEMB     67       CHL1     H23B     HAL2     0.900000E-01   1.00800           0
      7559 MEMB     67       CHL1     C24      CTL2    -0.180000       12.0110           0
      7560 MEMB     67       CHL1     H24A     HAL2     0.900000E-01   1.00800           0
      7561 MEMB     67       CHL1     H24B     HAL2     0.900000E-01   1.00800           0
      7562 MEMB     67       CHL1     C25      CTL1    -0.900000E-01   12.0110           0
      7563 MEMB     67       CHL1     H25      HAL1     0.900000E-01   1.00800           0
      7564 MEMB     67       CHL1     C26      CTL3    -0.270000       12.0110           0
      7565 MEMB     67       CHL1     H26A     HAL3     0.900000E-01   1.00800           0
      7566 MEMB     67       CHL1     H26B     HAL3     0.900000E-01   1.00800           0
      7567 MEMB     67       CHL1     H26C     HAL3     0.900000E-01   1.00800           0
      7568 MEMB     67       CHL1     C27      CTL3    -0.270000       12.0110           0
      7569 MEMB     67       CHL1     H27A     HAL3     0.900000E-01   1.00800           0
      7570 MEMB     67       CHL1     H27B     HAL3     0.900000E-01   1.00800           0
      7571 MEMB     67       CHL1     H27C     HAL3     0.900000E-01   1.00800           0
      7572 MEMB     68       OSM      N        NTL     -0.600000       14.0070           0
      7573 MEMB     68       OSM      C15      CTL5    -0.350000       12.0110           0
      7574 MEMB     68       OSM      H15A     HL       0.250000       1.00800           0
      7575 MEMB     68       OSM      H15B     HL       0.250000       1.00800           0
      7576 MEMB     68       OSM      H15C     HL       0.250000       1.00800           0
      7577 MEMB     68       OSM      C14      CTL5    -0.350000       12.0110           0
      7578 MEMB     68       OSM      H14A     HL       0.250000       1.00800           0
      7579 MEMB     68       OSM      H14B     HL       0.250000       1.00800           0
      7580 MEMB     68       OSM      H14C     HL       0.250000       1.00800           0
      7581 MEMB     68       OSM      C13      CTL5    -0.350000       12.0110           0
      7582 MEMB     68       OSM      H13A     HL       0.250000       1.00800           0
      7583 MEMB     68       OSM      H13B     HL       0.250000       1.00800           0
      7584 MEMB     68       OSM      H13C     HL       0.250000       1.00800           0
      7585 MEMB     68       OSM      C12      CTL2    -0.100000       12.0110           0
      7586 MEMB     68       OSM      H12A     HL       0.250000       1.00800           0
      7587 MEMB     68       OSM      H12B     HL       0.250000       1.00800           0
      7588 MEMB     68       OSM      C11      CTL2    -0.800000E-01   12.0110           0
      7589 MEMB     68       OSM      H11A     HAL2     0.900000E-01   1.00800           0
      7590 MEMB     68       OSM      H11B     HAL2     0.900000E-01   1.00800           0
      7591 MEMB     68       OSM      P        PL        1.50000       30.9740           0
      7592 MEMB     68       OSM      O13      O2L     -0.780000       15.9994           0
      7593 MEMB     68       OSM      O14      O2L     -0.780000       15.9994           0
      7594 MEMB     68       OSM      O11      OSLP    -0.570000       15.9994           0
      7595 MEMB     68       OSM      O12      OSLP    -0.570000       15.9994           0
      7596 MEMB     68       OSM      C1S      CTL2    -0.800000E-01   12.0110           0
      7597 MEMB     68       OSM      H1S      HAL2     0.900000E-01   1.00800           0
      7598 MEMB     68       OSM      H1T      HAL2     0.900000E-01   1.00800           0
      7599 MEMB     68       OSM      NF       NHL     -0.700000       14.0070           0
      7600 MEMB     68       OSM      HNF      H        0.350000       1.00800           0
      7601 MEMB     68       OSM      C2S      CTL1     0.300000       12.0110           0
      7602 MEMB     68       OSM      H2S      HAL1     0.500000E-01   1.00800           0
      7603 MEMB     68       OSM      C3S      CTO1     0.500000       12.0110           0
      7604 MEMB     68       OSM      H3S      HAL1    -0.110000       1.00800           0
      7605 MEMB     68       OSM      O3       OHL     -0.690000       15.9994           0
      7606 MEMB     68       OSM      HO3      HOL      0.300000       1.00800           0
      7607 MEMB     68       OSM      C4S      CEL3    -0.150000       12.0110           0
      7608 MEMB     68       OSM      H4S      HEL1     0.150000       1.00800           0
      7609 MEMB     68       OSM      C5S      CEL3    -0.150000       12.0110           0
      7610 MEMB     68       OSM      H5S      HEL1     0.150000       1.00800           0
      7611 MEMB     68       OSM      C6S      CTL2    -0.180000       12.0110           0
      7612 MEMB     68       OSM      H6S      HAL2     0.900000E-01   1.00800           0
      7613 MEMB     68       OSM      H6T      HAL2     0.900000E-01   1.00800           0
      7614 MEMB     68       OSM      C7S      CTL2    -0.180000       12.0110           0
      7615 MEMB     68       OSM      H7S      HAL2     0.900000E-01   1.00800           0
      7616 MEMB     68       OSM      H7T      HAL2     0.900000E-01   1.00800           0
      7617 MEMB     68       OSM      C8S      CTL2    -0.180000       12.0110           0
      7618 MEMB     68       OSM      H8S      HAL2     0.900000E-01   1.00800           0
      7619 MEMB     68       OSM      H8T      HAL2     0.900000E-01   1.00800           0
      7620 MEMB     68       OSM      C9S      CTL2    -0.180000       12.0110           0
      7621 MEMB     68       OSM      H9S      HAL2     0.900000E-01   1.00800           0
      7622 MEMB     68       OSM      H9T      HAL2     0.900000E-01   1.00800           0
      7623 MEMB     68       OSM      C10S     CTL2    -0.180000       12.0110           0
      7624 MEMB     68       OSM      H10S     HAL2     0.900000E-01   1.00800           0
      7625 MEMB     68       OSM      H10T     HAL2     0.900000E-01   1.00800           0
      7626 MEMB     68       OSM      C11S     CTL2    -0.180000       12.0110           0
      7627 MEMB     68       OSM      H11S     HAL2     0.900000E-01   1.00800           0
      7628 MEMB     68       OSM      H11T     HAL2     0.900000E-01   1.00800           0
      7629 MEMB     68       OSM      C12S     CTL2    -0.180000       12.0110           0
      7630 MEMB     68       OSM      H12S     HAL2     0.900000E-01   1.00800           0
      7631 MEMB     68       OSM      H12T     HAL2     0.900000E-01   1.00800           0
      7632 MEMB     68       OSM      C13S     CTL2    -0.180000       12.0110           0
      7633 MEMB     68       OSM      H13S     HAL2     0.900000E-01   1.00800           0
      7634 MEMB     68       OSM      H13T     HAL2     0.900000E-01   1.00800           0
      7635 MEMB     68       OSM      C14S     CTL2    -0.180000       12.0110           0
      7636 MEMB     68       OSM      H14S     HAL2     0.900000E-01   1.00800           0
      7637 MEMB     68       OSM      H14T     HAL2     0.900000E-01   1.00800           0
      7638 MEMB     68       OSM      C15S     CTL2    -0.180000       12.0110           0
      7639 MEMB     68       OSM      H15S     HAL2     0.900000E-01   1.00800           0
      7640 MEMB     68       OSM      H15T     HAL2     0.900000E-01   1.00800           0
      7641 MEMB     68       OSM      C16S     CTL2    -0.180000       12.0110           0
      7642 MEMB     68       OSM      H16S     HAL2     0.900000E-01   1.00800           0
      7643 MEMB     68       OSM      H16T     HAL2     0.900000E-01   1.00800           0
      7644 MEMB     68       OSM      C17S     CTL2    -0.180000       12.0110           0
      7645 MEMB     68       OSM      H17S     HAL2     0.900000E-01   1.00800           0
      7646 MEMB     68       OSM      H17T     HAL2     0.900000E-01   1.00800           0
      7647 MEMB     68       OSM      C18S     CTL3    -0.270000       12.0110           0
      7648 MEMB     68       OSM      H18S     HAL3     0.900000E-01   1.00800           0
      7649 MEMB     68       OSM      H18T     HAL3     0.900000E-01   1.00800           0
      7650 MEMB     68       OSM      H18U     HAL3     0.900000E-01   1.00800           0
      7651 MEMB     68       OSM      C1F      C        0.550000       12.0110           0
      7652 MEMB     68       OSM      OF       O       -0.600000       15.9994           0
      7653 MEMB     68       OSM      C2F      CTL2    -0.700000E-01   12.0110           0
      7654 MEMB     68       OSM      H2F      HAL2     0.600000E-01   1.00800           0
      7655 MEMB     68       OSM      H2G      HAL2     0.600000E-01   1.00800           0
      7656 MEMB     68       OSM      C3F      CTL2    -0.180000       12.0110           0
      7657 MEMB     68       OSM      H3F      HAL2     0.900000E-01   1.00800           0
      7658 MEMB     68       OSM      H3G      HAL2     0.900000E-01   1.00800           0
      7659 MEMB     68       OSM      C4F      CTL2    -0.180000       12.0110           0
      7660 MEMB     68       OSM      H4F      HAL2     0.900000E-01   1.00800           0
      7661 MEMB     68       OSM      H4G      HAL2     0.900000E-01   1.00800           0
      7662 MEMB     68       OSM      C5F      CTL2    -0.180000       12.0110           0
      7663 MEMB     68       OSM      H5F      HAL2     0.900000E-01   1.00800           0
      7664 MEMB     68       OSM      H5G      HAL2     0.900000E-01   1.00800           0
      7665 MEMB     68       OSM      C6F      CTL2    -0.180000       12.0110           0
      7666 MEMB     68       OSM      H6F      HAL2     0.900000E-01   1.00800           0
      7667 MEMB     68       OSM      H6G      HAL2     0.900000E-01   1.00800           0
      7668 MEMB     68       OSM      C7F      CTL2    -0.180000       12.0110           0
      7669 MEMB     68       OSM      H7F      HAL2     0.900000E-01   1.00800           0
      7670 MEMB     68       OSM      H7G      HAL2     0.900000E-01   1.00800           0
      7671 MEMB     68       OSM      C8F      CTL2    -0.180000       12.0110           0
      7672 MEMB     68       OSM      H8F      HAL2     0.900000E-01   1.00800           0
      7673 MEMB     68       OSM      H8G      HAL2     0.900000E-01   1.00800           0
      7674 MEMB     68       OSM      C9F      CEL1    -0.150000       12.0110           0
      7675 MEMB     68       OSM      H9F      HEL1     0.150000       1.00800           0
      7676 MEMB     68       OSM      C10F     CEL1    -0.150000       12.0110           0
      7677 MEMB     68       OSM      H10F     HEL1     0.150000       1.00800           0
      7678 MEMB     68       OSM      C11F     CTL2    -0.180000       12.0110           0
      7679 MEMB     68       OSM      H11F     HAL2     0.900000E-01   1.00800           0
      7680 MEMB     68       OSM      H11G     HAL2     0.900000E-01   1.00800           0
      7681 MEMB     68       OSM      C12F     CTL2    -0.180000       12.0110           0
      7682 MEMB     68       OSM      H12F     HAL2     0.900000E-01   1.00800           0
      7683 MEMB     68       OSM      H12G     HAL2     0.900000E-01   1.00800           0
      7684 MEMB     68       OSM      C13F     CTL2    -0.180000       12.0110           0
      7685 MEMB     68       OSM      H13F     HAL2     0.900000E-01   1.00800           0
      7686 MEMB     68       OSM      H13G     HAL2     0.900000E-01   1.00800           0
      7687 MEMB     68       OSM      C14F     CTL2    -0.180000       12.0110           0
      7688 MEMB     68       OSM      H14F     HAL2     0.900000E-01   1.00800           0
      7689 MEMB     68       OSM      H14G     HAL2     0.900000E-01   1.00800           0
      7690 MEMB     68       OSM      C15F     CTL2    -0.180000       12.0110           0
      7691 MEMB     68       OSM      H15F     HAL2     0.900000E-01   1.00800           0
      7692 MEMB     68       OSM      H15G     HAL2     0.900000E-01   1.00800           0
      7693 MEMB     68       OSM      C16F     CTL2    -0.180000       12.0110           0
      7694 MEMB     68       OSM      H16F     HAL2     0.900000E-01   1.00800           0
      7695 MEMB     68       OSM      H16G     HAL2     0.900000E-01   1.00800           0
      7696 MEMB     68       OSM      C17F     CTL2    -0.180000       12.0110           0
      7697 MEMB     68       OSM      H17F     HAL2     0.900000E-01   1.00800           0
      7698 MEMB     68       OSM      H17G     HAL2     0.900000E-01   1.00800           0
      7699 MEMB     68       OSM      C18F     CTL3    -0.270000       12.0110           0
      7700 MEMB     68       OSM      H18F     HAL3     0.900000E-01   1.00800           0
      7701 MEMB     68       OSM      H18G     HAL3     0.900000E-01   1.00800           0
      7702 MEMB     68       OSM      H18H     HAL3     0.900000E-01   1.00800           0
      7703 MEMB     69       SAPE     N        NH3L    -0.300000       14.0070           0
      7704 MEMB     69       SAPE     HN1      HCL      0.330000       1.00800           0
      7705 MEMB     69       SAPE     HN2      HCL      0.330000       1.00800           0
      7706 MEMB     69       SAPE     HN3      HCL      0.330000       1.00800           0
      7707 MEMB     69       SAPE     C12      CTL2     0.130000       12.0110           0
      7708 MEMB     69       SAPE     H12A     HAL2     0.900000E-01   1.00800           0
      7709 MEMB     69       SAPE     H12B     HAL2     0.900000E-01   1.00800           0
      7710 MEMB     69       SAPE     C11      CTL2    -0.800000E-01   12.0110           0
      7711 MEMB     69       SAPE     H11A     HAL2     0.900000E-01   1.00800           0
      7712 MEMB     69       SAPE     H11B     HAL2     0.900000E-01   1.00800           0
      7713 MEMB     69       SAPE     P        PL        1.50000       30.9740           0
      7714 MEMB     69       SAPE     O13      O2L     -0.780000       15.9994           0
      7715 MEMB     69       SAPE     O14      O2L     -0.780000       15.9994           0
      7716 MEMB     69       SAPE     O12      OSLP    -0.570000       15.9994           0
      7717 MEMB     69       SAPE     O11      OSLP    -0.570000       15.9994           0
      7718 MEMB     69       SAPE     C1       CTL2    -0.800000E-01   12.0110           0
      7719 MEMB     69       SAPE     HA       HAL2     0.900000E-01   1.00800           0
      7720 MEMB     69       SAPE     HB       HAL2     0.900000E-01   1.00800           0
      7721 MEMB     69       SAPE     C2       CTL1     0.170000       12.0110           0
      7722 MEMB     69       SAPE     HS       HAL1     0.900000E-01   1.00800           0
      7723 MEMB     69       SAPE     O21      OSL     -0.490000       15.9994           0
      7724 MEMB     69       SAPE     C21      CL       0.900000       12.0110           0
      7725 MEMB     69       SAPE     O22      OBL     -0.630000       15.9994           0
      7726 MEMB     69       SAPE     C22      CTL2    -0.220000       12.0110           0
      7727 MEMB     69       SAPE     H2R      HAL2     0.900000E-01   1.00800           0
      7728 MEMB     69       SAPE     H2S      HAL2     0.900000E-01   1.00800           0
      7729 MEMB     69       SAPE     C3       CTL2     0.800000E-01   12.0110           0
      7730 MEMB     69       SAPE     HX       HAL2     0.900000E-01   1.00800           0
      7731 MEMB     69       SAPE     HY       HAL2     0.900000E-01   1.00800           0
      7732 MEMB     69       SAPE     O31      OSL     -0.490000       15.9994           0
      7733 MEMB     69       SAPE     C31      CL       0.900000       12.0110           0
      7734 MEMB     69       SAPE     O32      OBL     -0.630000       15.9994           0
      7735 MEMB     69       SAPE     C32      CTL2    -0.220000       12.0110           0
      7736 MEMB     69       SAPE     H2X      HAL2     0.900000E-01   1.00800           0
      7737 MEMB     69       SAPE     H2Y      HAL2     0.900000E-01   1.00800           0
      7738 MEMB     69       SAPE     C23      CTL2    -0.180000       12.0110           0
      7739 MEMB     69       SAPE     H3R      HAL2     0.900000E-01   1.00800           0
      7740 MEMB     69       SAPE     H3S      HAL2     0.900000E-01   1.00800           0
      7741 MEMB     69       SAPE     C24      CTL2    -0.180000       12.0110           0
      7742 MEMB     69       SAPE     H4R      HAL2     0.900000E-01   1.00800           0
      7743 MEMB     69       SAPE     H4S      HAL2     0.900000E-01   1.00800           0
      7744 MEMB     69       SAPE     C25      CEL1    -0.150000       12.0110           0
      7745 MEMB     69       SAPE     H5R      HEL1     0.150000       1.00800           0
      7746 MEMB     69       SAPE     C26      CEL1    -0.150000       12.0110           0
      7747 MEMB     69       SAPE     H6R      HEL1     0.150000       1.00800           0
      7748 MEMB     69       SAPE     C27      CTL2    -0.180000       12.0110           0
      7749 MEMB     69       SAPE     H7R      HAL2     0.900000E-01   1.00800           0
      7750 MEMB     69       SAPE     H7S      HAL2     0.900000E-01   1.00800           0
      7751 MEMB     69       SAPE     C28      CEL1    -0.150000       12.0110           0
      7752 MEMB     69       SAPE     H8R      HEL1     0.150000       1.00800           0
      7753 MEMB     69       SAPE     C29      CEL1    -0.150000       12.0110           0
      7754 MEMB     69       SAPE     H9R      HEL1     0.150000       1.00800           0
      7755 MEMB     69       SAPE     C210     CTL2    -0.180000       12.0110           0
      7756 MEMB     69       SAPE     H10R     HAL2     0.900000E-01   1.00800           0
      7757 MEMB     69       SAPE     H10S     HAL2     0.900000E-01   1.00800           0
      7758 MEMB     69       SAPE     C211     CEL1    -0.150000       12.0110           0
      7759 MEMB     69       SAPE     H11R     HEL1     0.150000       1.00800           0
      7760 MEMB     69       SAPE     C212     CEL1    -0.150000       12.0110           0
      7761 MEMB     69       SAPE     H12R     HEL1     0.150000       1.00800           0
      7762 MEMB     69       SAPE     C213     CTL2    -0.180000       12.0110           0
      7763 MEMB     69       SAPE     H13R     HAL2     0.900000E-01   1.00800           0
      7764 MEMB     69       SAPE     H13S     HAL2     0.900000E-01   1.00800           0
      7765 MEMB     69       SAPE     C214     CEL1    -0.150000       12.0110           0
      7766 MEMB     69       SAPE     H14R     HEL1     0.150000       1.00800           0
      7767 MEMB     69       SAPE     C215     CEL1    -0.150000       12.0110           0
      7768 MEMB     69       SAPE     H15R     HEL1     0.150000       1.00800           0
      7769 MEMB     69       SAPE     C216     CTL2    -0.180000       12.0110           0
      7770 MEMB     69       SAPE     H16R     HAL2     0.900000E-01   1.00800           0
      7771 MEMB     69       SAPE     H16S     HAL2     0.900000E-01   1.00800           0
      7772 MEMB     69       SAPE     C217     CTL2    -0.180000       12.0110           0
      7773 MEMB     69       SAPE     H17R     HAL2     0.900000E-01   1.00800           0
      7774 MEMB     69       SAPE     H17S     HAL2     0.900000E-01   1.00800           0
      7775 MEMB     69       SAPE     C218     CTL2    -0.180000       12.0110           0
      7776 MEMB     69       SAPE     H18R     HAL2     0.900000E-01   1.00800           0
      7777 MEMB     69       SAPE     H18S     HAL2     0.900000E-01   1.00800           0
      7778 MEMB     69       SAPE     C219     CTL2    -0.180000       12.0110           0
      7779 MEMB     69       SAPE     H19R     HAL2     0.900000E-01   1.00800           0
      7780 MEMB     69       SAPE     H19S     HAL2     0.900000E-01   1.00800           0
      7781 MEMB     69       SAPE     C220     CTL3    -0.270000       12.0110           0
      7782 MEMB     69       SAPE     H20R     HAL3     0.900000E-01   1.00800           0
      7783 MEMB     69       SAPE     H20S     HAL3     0.900000E-01   1.00800           0
      7784 MEMB     69       SAPE     H20T     HAL3     0.900000E-01   1.00800           0
      7785 MEMB     69       SAPE     C33      CTL2    -0.180000       12.0110           0
      7786 MEMB     69       SAPE     H3X      HAL2     0.900000E-01   1.00800           0
      7787 MEMB     69       SAPE     H3Y      HAL2     0.900000E-01   1.00800           0
      7788 MEMB     69       SAPE     C34      CTL2    -0.180000       12.0110           0
      7789 MEMB     69       SAPE     H4X      HAL2     0.900000E-01   1.00800           0
      7790 MEMB     69       SAPE     H4Y      HAL2     0.900000E-01   1.00800           0
      7791 MEMB     69       SAPE     C35      CTL2    -0.180000       12.0110           0
      7792 MEMB     69       SAPE     H5X      HAL2     0.900000E-01   1.00800           0
      7793 MEMB     69       SAPE     H5Y      HAL2     0.900000E-01   1.00800           0
      7794 MEMB     69       SAPE     C36      CTL2    -0.180000       12.0110           0
      7795 MEMB     69       SAPE     H6X      HAL2     0.900000E-01   1.00800           0
      7796 MEMB     69       SAPE     H6Y      HAL2     0.900000E-01   1.00800           0
      7797 MEMB     69       SAPE     C37      CTL2    -0.180000       12.0110           0
      7798 MEMB     69       SAPE     H7X      HAL2     0.900000E-01   1.00800           0
      7799 MEMB     69       SAPE     H7Y      HAL2     0.900000E-01   1.00800           0
      7800 MEMB     69       SAPE     C38      CTL2    -0.180000       12.0110           0
      7801 MEMB     69       SAPE     H8X      HAL2     0.900000E-01   1.00800           0
      7802 MEMB     69       SAPE     H8Y      HAL2     0.900000E-01   1.00800           0
      7803 MEMB     69       SAPE     C39      CTL2    -0.180000       12.0110           0
      7804 MEMB     69       SAPE     H9X      HAL2     0.900000E-01   1.00800           0
      7805 MEMB     69       SAPE     H9Y      HAL2     0.900000E-01   1.00800           0
      7806 MEMB     69       SAPE     C310     CTL2    -0.180000       12.0110           0
      7807 MEMB     69       SAPE     H10X     HAL2     0.900000E-01   1.00800           0
      7808 MEMB     69       SAPE     H10Y     HAL2     0.900000E-01   1.00800           0
      7809 MEMB     69       SAPE     C311     CTL2    -0.180000       12.0110           0
      7810 MEMB     69       SAPE     H11X     HAL2     0.900000E-01   1.00800           0
      7811 MEMB     69       SAPE     H11Y     HAL2     0.900000E-01   1.00800           0
      7812 MEMB     69       SAPE     C312     CTL2    -0.180000       12.0110           0
      7813 MEMB     69       SAPE     H12X     HAL2     0.900000E-01   1.00800           0
      7814 MEMB     69       SAPE     H12Y     HAL2     0.900000E-01   1.00800           0
      7815 MEMB     69       SAPE     C313     CTL2    -0.180000       12.0110           0
      7816 MEMB     69       SAPE     H13X     HAL2     0.900000E-01   1.00800           0
      7817 MEMB     69       SAPE     H13Y     HAL2     0.900000E-01   1.00800           0
      7818 MEMB     69       SAPE     C314     CTL2    -0.180000       12.0110           0
      7819 MEMB     69       SAPE     H14X     HAL2     0.900000E-01   1.00800           0
      7820 MEMB     69       SAPE     H14Y     HAL2     0.900000E-01   1.00800           0
      7821 MEMB     69       SAPE     C315     CTL2    -0.180000       12.0110           0
      7822 MEMB     69       SAPE     H15X     HAL2     0.900000E-01   1.00800           0
      7823 MEMB     69       SAPE     H15Y     HAL2     0.900000E-01   1.00800           0
      7824 MEMB     69       SAPE     C316     CTL2    -0.180000       12.0110           0
      7825 MEMB     69       SAPE     H16X     HAL2     0.900000E-01   1.00800           0
      7826 MEMB     69       SAPE     H16Y     HAL2     0.900000E-01   1.00800           0
      7827 MEMB     69       SAPE     C317     CTL2    -0.180000       12.0110           0
      7828 MEMB     69       SAPE     H17X     HAL2     0.900000E-01   1.00800           0
      7829 MEMB     69       SAPE     H17Y     HAL2     0.900000E-01   1.00800           0
      7830 MEMB     69       SAPE     C318     CTL3    -0.270000       12.0110           0
      7831 MEMB     69       SAPE     H18X     HAL3     0.900000E-01   1.00800           0
      7832 MEMB     69       SAPE     H18Y     HAL3     0.900000E-01   1.00800           0
      7833 MEMB     69       SAPE     H18Z     HAL3     0.900000E-01   1.00800           0
      7834 MEMB     70       CHL1     C3       CRL1     0.140000       12.0110           0
      7835 MEMB     70       CHL1     H3       HGA1     0.900000E-01   1.00800           0
      7836 MEMB     70       CHL1     O3       OHL     -0.660000       15.9994           0
      7837 MEMB     70       CHL1     H3'      HOL      0.430000       1.00800           0
      7838 MEMB     70       CHL1     C4       CRL2    -0.180000       12.0110           0
      7839 MEMB     70       CHL1     H4A      HGA2     0.900000E-01   1.00800           0
      7840 MEMB     70       CHL1     H4B      HGA2     0.900000E-01   1.00800           0
      7841 MEMB     70       CHL1     C5       CEL1      0.00000       12.0110           0
      7842 MEMB     70       CHL1     C6       CEL1    -0.150000       12.0110           0
      7843 MEMB     70       CHL1     H6       HEL1     0.150000       1.00800           0
      7844 MEMB     70       CHL1     C7       CRL2    -0.180000       12.0110           0
      7845 MEMB     70       CHL1     H7A      HGA2     0.900000E-01   1.00800           0
      7846 MEMB     70       CHL1     H7B      HGA2     0.900000E-01   1.00800           0
      7847 MEMB     70       CHL1     C8       CRL1    -0.900000E-01   12.0110           0
      7848 MEMB     70       CHL1     H8       HGA1     0.900000E-01   1.00800           0
      7849 MEMB     70       CHL1     C14      CRL1    -0.900000E-01   12.0110           0
      7850 MEMB     70       CHL1     H14      HGA1     0.900000E-01   1.00800           0
      7851 MEMB     70       CHL1     C15      CRL2    -0.180000       12.0110           0
      7852 MEMB     70       CHL1     H15A     HGA2     0.900000E-01   1.00800           0
      7853 MEMB     70       CHL1     H15B     HGA2     0.900000E-01   1.00800           0
      7854 MEMB     70       CHL1     C16      CRL2    -0.180000       12.0110           0
      7855 MEMB     70       CHL1     H16A     HGA2     0.900000E-01   1.00800           0
      7856 MEMB     70       CHL1     H16B     HGA2     0.900000E-01   1.00800           0
      7857 MEMB     70       CHL1     C17      CRL1    -0.900000E-01   12.0110           0
      7858 MEMB     70       CHL1     H17      HGA1     0.900000E-01   1.00800           0
      7859 MEMB     70       CHL1     C13      CRL1      0.00000       12.0110           0
      7860 MEMB     70       CHL1     C18      CTL3    -0.270000       12.0110           0
      7861 MEMB     70       CHL1     H18A     HAL3     0.900000E-01   1.00800           0
      7862 MEMB     70       CHL1     H18B     HAL3     0.900000E-01   1.00800           0
      7863 MEMB     70       CHL1     H18C     HAL3     0.900000E-01   1.00800           0
      7864 MEMB     70       CHL1     C12      CRL2    -0.180000       12.0110           0
      7865 MEMB     70       CHL1     H12A     HGA2     0.900000E-01   1.00800           0
      7866 MEMB     70       CHL1     H12B     HGA2     0.900000E-01   1.00800           0
      7867 MEMB     70       CHL1     C11      CRL2    -0.180000       12.0110           0
      7868 MEMB     70       CHL1     H11A     HGA2     0.900000E-01   1.00800           0
      7869 MEMB     70       CHL1     H11B     HGA2     0.900000E-01   1.00800           0
      7870 MEMB     70       CHL1     C9       CRL1    -0.900000E-01   12.0110           0
      7871 MEMB     70       CHL1     H9       HGA1     0.900000E-01   1.00800           0
      7872 MEMB     70       CHL1     C10      CRL1      0.00000       12.0110           0
      7873 MEMB     70       CHL1     C19      CTL3    -0.270000       12.0110           0
      7874 MEMB     70       CHL1     H19A     HAL3     0.900000E-01   1.00800           0
      7875 MEMB     70       CHL1     H19B     HAL3     0.900000E-01   1.00800           0
      7876 MEMB     70       CHL1     H19C     HAL3     0.900000E-01   1.00800           0
      7877 MEMB     70       CHL1     C1       CRL2    -0.180000       12.0110           0
      7878 MEMB     70       CHL1     H1A      HGA2     0.900000E-01   1.00800           0
      7879 MEMB     70       CHL1     H1B      HGA2     0.900000E-01   1.00800           0
      7880 MEMB     70       CHL1     C2       CRL2    -0.180000       12.0110           0
      7881 MEMB     70       CHL1     H2A      HGA2     0.900000E-01   1.00800           0
      7882 MEMB     70       CHL1     H2B      HGA2     0.900000E-01   1.00800           0
      7883 MEMB     70       CHL1     C20      CTL1    -0.900000E-01   12.0110           0
      7884 MEMB     70       CHL1     H20      HAL1     0.900000E-01   1.00800           0
      7885 MEMB     70       CHL1     C21      CTL3    -0.270000       12.0110           0
      7886 MEMB     70       CHL1     H21A     HAL3     0.900000E-01   1.00800           0
      7887 MEMB     70       CHL1     H21B     HAL3     0.900000E-01   1.00800           0
      7888 MEMB     70       CHL1     H21C     HAL3     0.900000E-01   1.00800           0
      7889 MEMB     70       CHL1     C22      CTL2    -0.180000       12.0110           0
      7890 MEMB     70       CHL1     H22A     HAL2     0.900000E-01   1.00800           0
      7891 MEMB     70       CHL1     H22B     HAL2     0.900000E-01   1.00800           0
      7892 MEMB     70       CHL1     C23      CTL2    -0.180000       12.0110           0
      7893 MEMB     70       CHL1     H23A     HAL2     0.900000E-01   1.00800           0
      7894 MEMB     70       CHL1     H23B     HAL2     0.900000E-01   1.00800           0
      7895 MEMB     70       CHL1     C24      CTL2    -0.180000       12.0110           0
      7896 MEMB     70       CHL1     H24A     HAL2     0.900000E-01   1.00800           0
      7897 MEMB     70       CHL1     H24B     HAL2     0.900000E-01   1.00800           0
      7898 MEMB     70       CHL1     C25      CTL1    -0.900000E-01   12.0110           0
      7899 MEMB     70       CHL1     H25      HAL1     0.900000E-01   1.00800           0
      7900 MEMB     70       CHL1     C26      CTL3    -0.270000       12.0110           0
      7901 MEMB     70       CHL1     H26A     HAL3     0.900000E-01   1.00800           0
      7902 MEMB     70       CHL1     H26B     HAL3     0.900000E-01   1.00800           0
      7903 MEMB     70       CHL1     H26C     HAL3     0.900000E-01   1.00800           0
      7904 MEMB     70       CHL1     C27      CTL3    -0.270000       12.0110           0
      7905 MEMB     70       CHL1     H27A     HAL3     0.900000E-01   1.00800           0
      7906 MEMB     70       CHL1     H27B     HAL3     0.900000E-01   1.00800           0
      7907 MEMB     70       CHL1     H27C     HAL3     0.900000E-01   1.00800           0
      7908 MEMB     71       SAPC     N        NTL     -0.600000       14.0070           0
      7909 MEMB     71       SAPC     C12      CTL2    -0.100000       12.0110           0
      7910 MEMB     71       SAPC     H12A     HL       0.250000       1.00800           0
      7911 MEMB     71       SAPC     H12B     HL       0.250000       1.00800           0
      7912 MEMB     71       SAPC     C13      CTL5    -0.350000       12.0110           0
      7913 MEMB     71       SAPC     H13A     HL       0.250000       1.00800           0
      7914 MEMB     71       SAPC     H13B     HL       0.250000       1.00800           0
      7915 MEMB     71       SAPC     H13C     HL       0.250000       1.00800           0
      7916 MEMB     71       SAPC     C14      CTL5    -0.350000       12.0110           0
      7917 MEMB     71       SAPC     H14A     HL       0.250000       1.00800           0
      7918 MEMB     71       SAPC     H14B     HL       0.250000       1.00800           0
      7919 MEMB     71       SAPC     H14C     HL       0.250000       1.00800           0
      7920 MEMB     71       SAPC     C15      CTL5    -0.350000       12.0110           0
      7921 MEMB     71       SAPC     H15A     HL       0.250000       1.00800           0
      7922 MEMB     71       SAPC     H15B     HL       0.250000       1.00800           0
      7923 MEMB     71       SAPC     H15C     HL       0.250000       1.00800           0
      7924 MEMB     71       SAPC     C11      CTL2    -0.800000E-01   12.0110           0
      7925 MEMB     71       SAPC     H11A     HAL2     0.900000E-01   1.00800           0
      7926 MEMB     71       SAPC     H11B     HAL2     0.900000E-01   1.00800           0
      7927 MEMB     71       SAPC     P        PL        1.50000       30.9740           0
      7928 MEMB     71       SAPC     O13      O2L     -0.780000       15.9994           0
      7929 MEMB     71       SAPC     O14      O2L     -0.780000       15.9994           0
      7930 MEMB     71       SAPC     O12      OSLP    -0.570000       15.9994           0
      7931 MEMB     71       SAPC     O11      OSLP    -0.570000       15.9994           0
      7932 MEMB     71       SAPC     C1       CTL2    -0.800000E-01   12.0110           0
      7933 MEMB     71       SAPC     HA       HAL2     0.900000E-01   1.00800           0
      7934 MEMB     71       SAPC     HB       HAL2     0.900000E-01   1.00800           0
      7935 MEMB     71       SAPC     C2       CTL1     0.170000       12.0110           0
      7936 MEMB     71       SAPC     HS       HAL1     0.900000E-01   1.00800           0
      7937 MEMB     71       SAPC     O21      OSL     -0.490000       15.9994           0
      7938 MEMB     71       SAPC     C21      CL       0.900000       12.0110           0
      7939 MEMB     71       SAPC     O22      OBL     -0.630000       15.9994           0
      7940 MEMB     71       SAPC     C22      CTL2    -0.220000       12.0110           0
      7941 MEMB     71       SAPC     H2R      HAL2     0.900000E-01   1.00800           0
      7942 MEMB     71       SAPC     H2S      HAL2     0.900000E-01   1.00800           0
      7943 MEMB     71       SAPC     C3       CTL2     0.800000E-01   12.0110           0
      7944 MEMB     71       SAPC     HX       HAL2     0.900000E-01   1.00800           0
      7945 MEMB     71       SAPC     HY       HAL2     0.900000E-01   1.00800           0
      7946 MEMB     71       SAPC     O31      OSL     -0.490000       15.9994           0
      7947 MEMB     71       SAPC     C31      CL       0.900000       12.0110           0
      7948 MEMB     71       SAPC     O32      OBL     -0.630000       15.9994           0
      7949 MEMB     71       SAPC     C32      CTL2    -0.220000       12.0110           0
      7950 MEMB     71       SAPC     H2X      HAL2     0.900000E-01   1.00800           0
      7951 MEMB     71       SAPC     H2Y      HAL2     0.900000E-01   1.00800           0
      7952 MEMB     71       SAPC     C23      CTL2    -0.180000       12.0110           0
      7953 MEMB     71       SAPC     H3R      HAL2     0.900000E-01   1.00800           0
      7954 MEMB     71       SAPC     H3S      HAL2     0.900000E-01   1.00800           0
      7955 MEMB     71       SAPC     C24      CTL2    -0.180000       12.0110           0
      7956 MEMB     71       SAPC     H4R      HAL2     0.900000E-01   1.00800           0
      7957 MEMB     71       SAPC     H4S      HAL2     0.900000E-01   1.00800           0
      7958 MEMB     71       SAPC     C25      CEL1    -0.150000       12.0110           0
      7959 MEMB     71       SAPC     H5R      HEL1     0.150000       1.00800           0
      7960 MEMB     71       SAPC     C26      CEL1    -0.150000       12.0110           0
      7961 MEMB     71       SAPC     H6R      HEL1     0.150000       1.00800           0
      7962 MEMB     71       SAPC     C27      CTL2    -0.180000       12.0110           0
      7963 MEMB     71       SAPC     H7R      HAL2     0.900000E-01   1.00800           0
      7964 MEMB     71       SAPC     H7S      HAL2     0.900000E-01   1.00800           0
      7965 MEMB     71       SAPC     C28      CEL1    -0.150000       12.0110           0
      7966 MEMB     71       SAPC     H8R      HEL1     0.150000       1.00800           0
      7967 MEMB     71       SAPC     C29      CEL1    -0.150000       12.0110           0
      7968 MEMB     71       SAPC     H9R      HEL1     0.150000       1.00800           0
      7969 MEMB     71       SAPC     C210     CTL2    -0.180000       12.0110           0
      7970 MEMB     71       SAPC     H10R     HAL2     0.900000E-01   1.00800           0
      7971 MEMB     71       SAPC     H10S     HAL2     0.900000E-01   1.00800           0
      7972 MEMB     71       SAPC     C211     CEL1    -0.150000       12.0110           0
      7973 MEMB     71       SAPC     H11R     HEL1     0.150000       1.00800           0
      7974 MEMB     71       SAPC     C212     CEL1    -0.150000       12.0110           0
      7975 MEMB     71       SAPC     H12R     HEL1     0.150000       1.00800           0
      7976 MEMB     71       SAPC     C213     CTL2    -0.180000       12.0110           0
      7977 MEMB     71       SAPC     H13R     HAL2     0.900000E-01   1.00800           0
      7978 MEMB     71       SAPC     H13S     HAL2     0.900000E-01   1.00800           0
      7979 MEMB     71       SAPC     C214     CEL1    -0.150000       12.0110           0
      7980 MEMB     71       SAPC     H14R     HEL1     0.150000       1.00800           0
      7981 MEMB     71       SAPC     C215     CEL1    -0.150000       12.0110           0
      7982 MEMB     71       SAPC     H15R     HEL1     0.150000       1.00800           0
      7983 MEMB     71       SAPC     C216     CTL2    -0.180000       12.0110           0
      7984 MEMB     71       SAPC     H16R     HAL2     0.900000E-01   1.00800           0
      7985 MEMB     71       SAPC     H16S     HAL2     0.900000E-01   1.00800           0
      7986 MEMB     71       SAPC     C217     CTL2    -0.180000       12.0110           0
      7987 MEMB     71       SAPC     H17R     HAL2     0.900000E-01   1.00800           0
      7988 MEMB     71       SAPC     H17S     HAL2     0.900000E-01   1.00800           0
      7989 MEMB     71       SAPC     C218     CTL2    -0.270000       12.0110           0
      7990 MEMB     71       SAPC     H18R     HAL2     0.900000E-01   1.00800           0
      7991 MEMB     71       SAPC     H18S     HAL2     0.900000E-01   1.00800           0
      7992 MEMB     71       SAPC     C219     CTL2    -0.180000       12.0110           0
      7993 MEMB     71       SAPC     H19R     HAL2     0.900000E-01   1.00800           0
      7994 MEMB     71       SAPC     H19S     HAL2     0.900000E-01   1.00800           0
      7995 MEMB     71       SAPC     C220     CTL3    -0.180000       12.0110           0
      7996 MEMB     71       SAPC     H20R     HAL3     0.900000E-01   1.00800           0
      7997 MEMB     71       SAPC     H20S     HAL3     0.900000E-01   1.00800           0
      7998 MEMB     71       SAPC     H20T     HAL3     0.900000E-01   1.00800           0
      7999 MEMB     71       SAPC     C33      CTL2    -0.180000       12.0110           0
      8000 MEMB     71       SAPC     H3X      HAL2     0.900000E-01   1.00800           0
      8001 MEMB     71       SAPC     H3Y      HAL2     0.900000E-01   1.00800           0
      8002 MEMB     71       SAPC     C34      CTL2    -0.180000       12.0110           0
      8003 MEMB     71       SAPC     H4X      HAL2     0.900000E-01   1.00800           0
      8004 MEMB     71       SAPC     H4Y      HAL2     0.900000E-01   1.00800           0
      8005 MEMB     71       SAPC     C35      CTL2    -0.180000       12.0110           0
      8006 MEMB     71       SAPC     H5X      HAL2     0.900000E-01   1.00800           0
      8007 MEMB     71       SAPC     H5Y      HAL2     0.900000E-01   1.00800           0
      8008 MEMB     71       SAPC     C36      CTL2    -0.180000       12.0110           0
      8009 MEMB     71       SAPC     H6X      HAL2     0.900000E-01   1.00800           0
      8010 MEMB     71       SAPC     H6Y      HAL2     0.900000E-01   1.00800           0
      8011 MEMB     71       SAPC     C37      CTL2    -0.180000       12.0110           0
      8012 MEMB     71       SAPC     H7X      HAL2     0.900000E-01   1.00800           0
      8013 MEMB     71       SAPC     H7Y      HAL2     0.900000E-01   1.00800           0
      8014 MEMB     71       SAPC     C38      CTL2    -0.180000       12.0110           0
      8015 MEMB     71       SAPC     H8X      HAL2     0.900000E-01   1.00800           0
      8016 MEMB     71       SAPC     H8Y      HAL2     0.900000E-01   1.00800           0
      8017 MEMB     71       SAPC     C39      CTL2    -0.180000       12.0110           0
      8018 MEMB     71       SAPC     H9X      HAL2     0.900000E-01   1.00800           0
      8019 MEMB     71       SAPC     H9Y      HAL2     0.900000E-01   1.00800           0
      8020 MEMB     71       SAPC     C310     CTL2    -0.180000       12.0110           0
      8021 MEMB     71       SAPC     H10X     HAL2     0.900000E-01   1.00800           0
      8022 MEMB     71       SAPC     H10Y     HAL2     0.900000E-01   1.00800           0
      8023 MEMB     71       SAPC     C311     CTL2    -0.180000       12.0110           0
      8024 MEMB     71       SAPC     H11X     HAL2     0.900000E-01   1.00800           0
      8025 MEMB     71       SAPC     H11Y     HAL2     0.900000E-01   1.00800           0
      8026 MEMB     71       SAPC     C312     CTL2    -0.180000       12.0110           0
      8027 MEMB     71       SAPC     H12X     HAL2     0.900000E-01   1.00800           0
      8028 MEMB     71       SAPC     H12Y     HAL2     0.900000E-01   1.00800           0
      8029 MEMB     71       SAPC     C313     CTL2    -0.180000       12.0110           0
      8030 MEMB     71       SAPC     H13X     HAL2     0.900000E-01   1.00800           0
      8031 MEMB     71       SAPC     H13Y     HAL2     0.900000E-01   1.00800           0
      8032 MEMB     71       SAPC     C314     CTL2    -0.180000       12.0110           0
      8033 MEMB     71       SAPC     H14X     HAL2     0.900000E-01   1.00800           0
      8034 MEMB     71       SAPC     H14Y     HAL2     0.900000E-01   1.00800           0
      8035 MEMB     71       SAPC     C315     CTL2    -0.180000       12.0110           0
      8036 MEMB     71       SAPC     H15X     HAL2     0.900000E-01   1.00800           0
      8037 MEMB     71       SAPC     H15Y     HAL2     0.900000E-01   1.00800           0
      8038 MEMB     71       SAPC     C316     CTL2    -0.180000       12.0110           0
      8039 MEMB     71       SAPC     H16X     HAL2     0.900000E-01   1.00800           0
      8040 MEMB     71       SAPC     H16Y     HAL2     0.900000E-01   1.00800           0
      8041 MEMB     71       SAPC     C317     CTL2    -0.180000       12.0110           0
      8042 MEMB     71       SAPC     H17X     HAL2     0.900000E-01   1.00800           0
      8043 MEMB     71       SAPC     H17Y     HAL2     0.900000E-01   1.00800           0
      8044 MEMB     71       SAPC     C318     CTL3    -0.270000       12.0110           0
      8045 MEMB     71       SAPC     H18X     HAL3     0.900000E-01   1.00800           0
      8046 MEMB     71       SAPC     H18Y     HAL3     0.900000E-01   1.00800           0
      8047 MEMB     71       SAPC     H18Z     HAL3     0.900000E-01   1.00800           0
      8048 MEMB     72       OSM      N        NTL     -0.600000       14.0070           0
      8049 MEMB     72       OSM      C15      CTL5    -0.350000       12.0110           0
      8050 MEMB     72       OSM      H15A     HL       0.250000       1.00800           0
      8051 MEMB     72       OSM      H15B     HL       0.250000       1.00800           0
      8052 MEMB     72       OSM      H15C     HL       0.250000       1.00800           0
      8053 MEMB     72       OSM      C14      CTL5    -0.350000       12.0110           0
      8054 MEMB     72       OSM      H14A     HL       0.250000       1.00800           0
      8055 MEMB     72       OSM      H14B     HL       0.250000       1.00800           0
      8056 MEMB     72       OSM      H14C     HL       0.250000       1.00800           0
      8057 MEMB     72       OSM      C13      CTL5    -0.350000       12.0110           0
      8058 MEMB     72       OSM      H13A     HL       0.250000       1.00800           0
      8059 MEMB     72       OSM      H13B     HL       0.250000       1.00800           0
      8060 MEMB     72       OSM      H13C     HL       0.250000       1.00800           0
      8061 MEMB     72       OSM      C12      CTL2    -0.100000       12.0110           0
      8062 MEMB     72       OSM      H12A     HL       0.250000       1.00800           0
      8063 MEMB     72       OSM      H12B     HL       0.250000       1.00800           0
      8064 MEMB     72       OSM      C11      CTL2    -0.800000E-01   12.0110           0
      8065 MEMB     72       OSM      H11A     HAL2     0.900000E-01   1.00800           0
      8066 MEMB     72       OSM      H11B     HAL2     0.900000E-01   1.00800           0
      8067 MEMB     72       OSM      P        PL        1.50000       30.9740           0
      8068 MEMB     72       OSM      O13      O2L     -0.780000       15.9994           0
      8069 MEMB     72       OSM      O14      O2L     -0.780000       15.9994           0
      8070 MEMB     72       OSM      O11      OSLP    -0.570000       15.9994           0
      8071 MEMB     72       OSM      O12      OSLP    -0.570000       15.9994           0
      8072 MEMB     72       OSM      C1S      CTL2    -0.800000E-01   12.0110           0
      8073 MEMB     72       OSM      H1S      HAL2     0.900000E-01   1.00800           0
      8074 MEMB     72       OSM      H1T      HAL2     0.900000E-01   1.00800           0
      8075 MEMB     72       OSM      NF       NHL     -0.700000       14.0070           0
      8076 MEMB     72       OSM      HNF      H        0.350000       1.00800           0
      8077 MEMB     72       OSM      C2S      CTL1     0.300000       12.0110           0
      8078 MEMB     72       OSM      H2S      HAL1     0.500000E-01   1.00800           0
      8079 MEMB     72       OSM      C3S      CTO1     0.500000       12.0110           0
      8080 MEMB     72       OSM      H3S      HAL1    -0.110000       1.00800           0
      8081 MEMB     72       OSM      O3       OHL     -0.690000       15.9994           0
      8082 MEMB     72       OSM      HO3      HOL      0.300000       1.00800           0
      8083 MEMB     72       OSM      C4S      CEL3    -0.150000       12.0110           0
      8084 MEMB     72       OSM      H4S      HEL1     0.150000       1.00800           0
      8085 MEMB     72       OSM      C5S      CEL3    -0.150000       12.0110           0
      8086 MEMB     72       OSM      H5S      HEL1     0.150000       1.00800           0
      8087 MEMB     72       OSM      C6S      CTL2    -0.180000       12.0110           0
      8088 MEMB     72       OSM      H6S      HAL2     0.900000E-01   1.00800           0
      8089 MEMB     72       OSM      H6T      HAL2     0.900000E-01   1.00800           0
      8090 MEMB     72       OSM      C7S      CTL2    -0.180000       12.0110           0
      8091 MEMB     72       OSM      H7S      HAL2     0.900000E-01   1.00800           0
      8092 MEMB     72       OSM      H7T      HAL2     0.900000E-01   1.00800           0
      8093 MEMB     72       OSM      C8S      CTL2    -0.180000       12.0110           0
      8094 MEMB     72       OSM      H8S      HAL2     0.900000E-01   1.00800           0
      8095 MEMB     72       OSM      H8T      HAL2     0.900000E-01   1.00800           0
      8096 MEMB     72       OSM      C9S      CTL2    -0.180000       12.0110           0
      8097 MEMB     72       OSM      H9S      HAL2     0.900000E-01   1.00800           0
      8098 MEMB     72       OSM      H9T      HAL2     0.900000E-01   1.00800           0
      8099 MEMB     72       OSM      C10S     CTL2    -0.180000       12.0110           0
      8100 MEMB     72       OSM      H10S     HAL2     0.900000E-01   1.00800           0
      8101 MEMB     72       OSM      H10T     HAL2     0.900000E-01   1.00800           0
      8102 MEMB     72       OSM      C11S     CTL2    -0.180000       12.0110           0
      8103 MEMB     72       OSM      H11S     HAL2     0.900000E-01   1.00800           0
      8104 MEMB     72       OSM      H11T     HAL2     0.900000E-01   1.00800           0
      8105 MEMB     72       OSM      C12S     CTL2    -0.180000       12.0110           0
      8106 MEMB     72       OSM      H12S     HAL2     0.900000E-01   1.00800           0
      8107 MEMB     72       OSM      H12T     HAL2     0.900000E-01   1.00800           0
      8108 MEMB     72       OSM      C13S     CTL2    -0.180000       12.0110           0
      8109 MEMB     72       OSM      H13S     HAL2     0.900000E-01   1.00800           0
      8110 MEMB     72       OSM      H13T     HAL2     0.900000E-01   1.00800           0
      8111 MEMB     72       OSM      C14S     CTL2    -0.180000       12.0110           0
      8112 MEMB     72       OSM      H14S     HAL2     0.900000E-01   1.00800           0
      8113 MEMB     72       OSM      H14T     HAL2     0.900000E-01   1.00800           0
      8114 MEMB     72       OSM      C15S     CTL2    -0.180000       12.0110           0
      8115 MEMB     72       OSM      H15S     HAL2     0.900000E-01   1.00800           0
      8116 MEMB     72       OSM      H15T     HAL2     0.900000E-01   1.00800           0
      8117 MEMB     72       OSM      C16S     CTL2    -0.180000       12.0110           0
      8118 MEMB     72       OSM      H16S     HAL2     0.900000E-01   1.00800           0
      8119 MEMB     72       OSM      H16T     HAL2     0.900000E-01   1.00800           0
      8120 MEMB     72       OSM      C17S     CTL2    -0.180000       12.0110           0
      8121 MEMB     72       OSM      H17S     HAL2     0.900000E-01   1.00800           0
      8122 MEMB     72       OSM      H17T     HAL2     0.900000E-01   1.00800           0
      8123 MEMB     72       OSM      C18S     CTL3    -0.270000       12.0110           0
      8124 MEMB     72       OSM      H18S     HAL3     0.900000E-01   1.00800           0
      8125 MEMB     72       OSM      H18T     HAL3     0.900000E-01   1.00800           0
      8126 MEMB     72       OSM      H18U     HAL3     0.900000E-01   1.00800           0
      8127 MEMB     72       OSM      C1F      C        0.550000       12.0110           0
      8128 MEMB     72       OSM      OF       O       -0.600000       15.9994           0
      8129 MEMB     72       OSM      C2F      CTL2    -0.700000E-01   12.0110           0
      8130 MEMB     72       OSM      H2F      HAL2     0.600000E-01   1.00800           0
      8131 MEMB     72       OSM      H2G      HAL2     0.600000E-01   1.00800           0
      8132 MEMB     72       OSM      C3F      CTL2    -0.180000       12.0110           0
      8133 MEMB     72       OSM      H3F      HAL2     0.900000E-01   1.00800           0
      8134 MEMB     72       OSM      H3G      HAL2     0.900000E-01   1.00800           0
      8135 MEMB     72       OSM      C4F      CTL2    -0.180000       12.0110           0
      8136 MEMB     72       OSM      H4F      HAL2     0.900000E-01   1.00800           0
      8137 MEMB     72       OSM      H4G      HAL2     0.900000E-01   1.00800           0
      8138 MEMB     72       OSM      C5F      CTL2    -0.180000       12.0110           0
      8139 MEMB     72       OSM      H5F      HAL2     0.900000E-01   1.00800           0
      8140 MEMB     72       OSM      H5G      HAL2     0.900000E-01   1.00800           0
      8141 MEMB     72       OSM      C6F      CTL2    -0.180000       12.0110           0
      8142 MEMB     72       OSM      H6F      HAL2     0.900000E-01   1.00800           0
      8143 MEMB     72       OSM      H6G      HAL2     0.900000E-01   1.00800           0
      8144 MEMB     72       OSM      C7F      CTL2    -0.180000       12.0110           0
      8145 MEMB     72       OSM      H7F      HAL2     0.900000E-01   1.00800           0
      8146 MEMB     72       OSM      H7G      HAL2     0.900000E-01   1.00800           0
      8147 MEMB     72       OSM      C8F      CTL2    -0.180000       12.0110           0
      8148 MEMB     72       OSM      H8F      HAL2     0.900000E-01   1.00800           0
      8149 MEMB     72       OSM      H8G      HAL2     0.900000E-01   1.00800           0
      8150 MEMB     72       OSM      C9F      CEL1    -0.150000       12.0110           0
      8151 MEMB     72       OSM      H9F      HEL1     0.150000       1.00800           0
      8152 MEMB     72       OSM      C10F     CEL1    -0.150000       12.0110           0
      8153 MEMB     72       OSM      H10F     HEL1     0.150000       1.00800           0
      8154 MEMB     72       OSM      C11F     CTL2    -0.180000       12.0110           0
      8155 MEMB     72       OSM      H11F     HAL2     0.900000E-01   1.00800           0
      8156 MEMB     72       OSM      H11G     HAL2     0.900000E-01   1.00800           0
      8157 MEMB     72       OSM      C12F     CTL2    -0.180000       12.0110           0
      8158 MEMB     72       OSM      H12F     HAL2     0.900000E-01   1.00800           0
      8159 MEMB     72       OSM      H12G     HAL2     0.900000E-01   1.00800           0
      8160 MEMB     72       OSM      C13F     CTL2    -0.180000       12.0110           0
      8161 MEMB     72       OSM      H13F     HAL2     0.900000E-01   1.00800           0
      8162 MEMB     72       OSM      H13G     HAL2     0.900000E-01   1.00800           0
      8163 MEMB     72       OSM      C14F     CTL2    -0.180000       12.0110           0
      8164 MEMB     72       OSM      H14F     HAL2     0.900000E-01   1.00800           0
      8165 MEMB     72       OSM      H14G     HAL2     0.900000E-01   1.00800           0
      8166 MEMB     72       OSM      C15F     CTL2    -0.180000       12.0110           0
      8167 MEMB     72       OSM      H15F     HAL2     0.900000E-01   1.00800           0
      8168 MEMB     72       OSM      H15G     HAL2     0.900000E-01   1.00800           0
      8169 MEMB     72       OSM      C16F     CTL2    -0.180000       12.0110           0
      8170 MEMB     72       OSM      H16F     HAL2     0.900000E-01   1.00800           0
      8171 MEMB     72       OSM      H16G     HAL2     0.900000E-01   1.00800           0
      8172 MEMB     72       OSM      C17F     CTL2    -0.180000       12.0110           0
      8173 MEMB     72       OSM      H17F     HAL2     0.900000E-01   1.00800           0
      8174 MEMB     72       OSM      H17G     HAL2     0.900000E-01   1.00800           0
      8175 MEMB     72       OSM      C18F     CTL3    -0.270000       12.0110           0
      8176 MEMB     72       OSM      H18F     HAL3     0.900000E-01   1.00800           0
      8177 MEMB     72       OSM      H18G     HAL3     0.900000E-01   1.00800           0
      8178 MEMB     72       OSM      H18H     HAL3     0.900000E-01   1.00800           0
      8179 MEMB     73       OSM      N        NTL     -0.600000       14.0070           0
      8180 MEMB     73       OSM      C15      CTL5    -0.350000       12.0110           0
      8181 MEMB     73       OSM      H15A     HL       0.250000       1.00800           0
      8182 MEMB     73       OSM      H15B     HL       0.250000       1.00800           0
      8183 MEMB     73       OSM      H15C     HL       0.250000       1.00800           0
      8184 MEMB     73       OSM      C14      CTL5    -0.350000       12.0110           0
      8185 MEMB     73       OSM      H14A     HL       0.250000       1.00800           0
      8186 MEMB     73       OSM      H14B     HL       0.250000       1.00800           0
      8187 MEMB     73       OSM      H14C     HL       0.250000       1.00800           0
      8188 MEMB     73       OSM      C13      CTL5    -0.350000       12.0110           0
      8189 MEMB     73       OSM      H13A     HL       0.250000       1.00800           0
      8190 MEMB     73       OSM      H13B     HL       0.250000       1.00800           0
      8191 MEMB     73       OSM      H13C     HL       0.250000       1.00800           0
      8192 MEMB     73       OSM      C12      CTL2    -0.100000       12.0110           0
      8193 MEMB     73       OSM      H12A     HL       0.250000       1.00800           0
      8194 MEMB     73       OSM      H12B     HL       0.250000       1.00800           0
      8195 MEMB     73       OSM      C11      CTL2    -0.800000E-01   12.0110           0
      8196 MEMB     73       OSM      H11A     HAL2     0.900000E-01   1.00800           0
      8197 MEMB     73       OSM      H11B     HAL2     0.900000E-01   1.00800           0
      8198 MEMB     73       OSM      P        PL        1.50000       30.9740           0
      8199 MEMB     73       OSM      O13      O2L     -0.780000       15.9994           0
      8200 MEMB     73       OSM      O14      O2L     -0.780000       15.9994           0
      8201 MEMB     73       OSM      O11      OSLP    -0.570000       15.9994           0
      8202 MEMB     73       OSM      O12      OSLP    -0.570000       15.9994           0
      8203 MEMB     73       OSM      C1S      CTL2    -0.800000E-01   12.0110           0
      8204 MEMB     73       OSM      H1S      HAL2     0.900000E-01   1.00800           0
      8205 MEMB     73       OSM      H1T      HAL2     0.900000E-01   1.00800           0
      8206 MEMB     73       OSM      NF       NHL     -0.700000       14.0070           0
      8207 MEMB     73       OSM      HNF      H        0.350000       1.00800           0
      8208 MEMB     73       OSM      C2S      CTL1     0.300000       12.0110           0
      8209 MEMB     73       OSM      H2S      HAL1     0.500000E-01   1.00800           0
      8210 MEMB     73       OSM      C3S      CTO1     0.500000       12.0110           0
      8211 MEMB     73       OSM      H3S      HAL1    -0.110000       1.00800           0
      8212 MEMB     73       OSM      O3       OHL     -0.690000       15.9994           0
      8213 MEMB     73       OSM      HO3      HOL      0.300000       1.00800           0
      8214 MEMB     73       OSM      C4S      CEL3    -0.150000       12.0110           0
      8215 MEMB     73       OSM      H4S      HEL1     0.150000       1.00800           0
      8216 MEMB     73       OSM      C5S      CEL3    -0.150000       12.0110           0
      8217 MEMB     73       OSM      H5S      HEL1     0.150000       1.00800           0
      8218 MEMB     73       OSM      C6S      CTL2    -0.180000       12.0110           0
      8219 MEMB     73       OSM      H6S      HAL2     0.900000E-01   1.00800           0
      8220 MEMB     73       OSM      H6T      HAL2     0.900000E-01   1.00800           0
      8221 MEMB     73       OSM      C7S      CTL2    -0.180000       12.0110           0
      8222 MEMB     73       OSM      H7S      HAL2     0.900000E-01   1.00800           0
      8223 MEMB     73       OSM      H7T      HAL2     0.900000E-01   1.00800           0
      8224 MEMB     73       OSM      C8S      CTL2    -0.180000       12.0110           0
      8225 MEMB     73       OSM      H8S      HAL2     0.900000E-01   1.00800           0
      8226 MEMB     73       OSM      H8T      HAL2     0.900000E-01   1.00800           0
      8227 MEMB     73       OSM      C9S      CTL2    -0.180000       12.0110           0
      8228 MEMB     73       OSM      H9S      HAL2     0.900000E-01   1.00800           0
      8229 MEMB     73       OSM      H9T      HAL2     0.900000E-01   1.00800           0
      8230 MEMB     73       OSM      C10S     CTL2    -0.180000       12.0110           0
      8231 MEMB     73       OSM      H10S     HAL2     0.900000E-01   1.00800           0
      8232 MEMB     73       OSM      H10T     HAL2     0.900000E-01   1.00800           0
      8233 MEMB     73       OSM      C11S     CTL2    -0.180000       12.0110           0
      8234 MEMB     73       OSM      H11S     HAL2     0.900000E-01   1.00800           0
      8235 MEMB     73       OSM      H11T     HAL2     0.900000E-01   1.00800           0
      8236 MEMB     73       OSM      C12S     CTL2    -0.180000       12.0110           0
      8237 MEMB     73       OSM      H12S     HAL2     0.900000E-01   1.00800           0
      8238 MEMB     73       OSM      H12T     HAL2     0.900000E-01   1.00800           0
      8239 MEMB     73       OSM      C13S     CTL2    -0.180000       12.0110           0
      8240 MEMB     73       OSM      H13S     HAL2     0.900000E-01   1.00800           0
      8241 MEMB     73       OSM      H13T     HAL2     0.900000E-01   1.00800           0
      8242 MEMB     73       OSM      C14S     CTL2    -0.180000       12.0110           0
      8243 MEMB     73       OSM      H14S     HAL2     0.900000E-01   1.00800           0
      8244 MEMB     73       OSM      H14T     HAL2     0.900000E-01   1.00800           0
      8245 MEMB     73       OSM      C15S     CTL2    -0.180000       12.0110           0
      8246 MEMB     73       OSM      H15S     HAL2     0.900000E-01   1.00800           0
      8247 MEMB     73       OSM      H15T     HAL2     0.900000E-01   1.00800           0
      8248 MEMB     73       OSM      C16S     CTL2    -0.180000       12.0110           0
      8249 MEMB     73       OSM      H16S     HAL2     0.900000E-01   1.00800           0
      8250 MEMB     73       OSM      H16T     HAL2     0.900000E-01   1.00800           0
      8251 MEMB     73       OSM      C17S     CTL2    -0.180000       12.0110           0
      8252 MEMB     73       OSM      H17S     HAL2     0.900000E-01   1.00800           0
      8253 MEMB     73       OSM      H17T     HAL2     0.900000E-01   1.00800           0
      8254 MEMB     73       OSM      C18S     CTL3    -0.270000       12.0110           0
      8255 MEMB     73       OSM      H18S     HAL3     0.900000E-01   1.00800           0
      8256 MEMB     73       OSM      H18T     HAL3     0.900000E-01   1.00800           0
      8257 MEMB     73       OSM      H18U     HAL3     0.900000E-01   1.00800           0
      8258 MEMB     73       OSM      C1F      C        0.550000       12.0110           0
      8259 MEMB     73       OSM      OF       O       -0.600000       15.9994           0
      8260 MEMB     73       OSM      C2F      CTL2    -0.700000E-01   12.0110           0
      8261 MEMB     73       OSM      H2F      HAL2     0.600000E-01   1.00800           0
      8262 MEMB     73       OSM      H2G      HAL2     0.600000E-01   1.00800           0
      8263 MEMB     73       OSM      C3F      CTL2    -0.180000       12.0110           0
      8264 MEMB     73       OSM      H3F      HAL2     0.900000E-01   1.00800           0
      8265 MEMB     73       OSM      H3G      HAL2     0.900000E-01   1.00800           0
      8266 MEMB     73       OSM      C4F      CTL2    -0.180000       12.0110           0
      8267 MEMB     73       OSM      H4F      HAL2     0.900000E-01   1.00800           0
      8268 MEMB     73       OSM      H4G      HAL2     0.900000E-01   1.00800           0
      8269 MEMB     73       OSM      C5F      CTL2    -0.180000       12.0110           0
      8270 MEMB     73       OSM      H5F      HAL2     0.900000E-01   1.00800           0
      8271 MEMB     73       OSM      H5G      HAL2     0.900000E-01   1.00800           0
      8272 MEMB     73       OSM      C6F      CTL2    -0.180000       12.0110           0
      8273 MEMB     73       OSM      H6F      HAL2     0.900000E-01   1.00800           0
      8274 MEMB     73       OSM      H6G      HAL2     0.900000E-01   1.00800           0
      8275 MEMB     73       OSM      C7F      CTL2    -0.180000       12.0110           0
      8276 MEMB     73       OSM      H7F      HAL2     0.900000E-01   1.00800           0
      8277 MEMB     73       OSM      H7G      HAL2     0.900000E-01   1.00800           0
      8278 MEMB     73       OSM      C8F      CTL2    -0.180000       12.0110           0
      8279 MEMB     73       OSM      H8F      HAL2     0.900000E-01   1.00800           0
      8280 MEMB     73       OSM      H8G      HAL2     0.900000E-01   1.00800           0
      8281 MEMB     73       OSM      C9F      CEL1    -0.150000       12.0110           0
      8282 MEMB     73       OSM      H9F      HEL1     0.150000       1.00800           0
      8283 MEMB     73       OSM      C10F     CEL1    -0.150000       12.0110           0
      8284 MEMB     73       OSM      H10F     HEL1     0.150000       1.00800           0
      8285 MEMB     73       OSM      C11F     CTL2    -0.180000       12.0110           0
      8286 MEMB     73       OSM      H11F     HAL2     0.900000E-01   1.00800           0
      8287 MEMB     73       OSM      H11G     HAL2     0.900000E-01   1.00800           0
      8288 MEMB     73       OSM      C12F     CTL2    -0.180000       12.0110           0
      8289 MEMB     73       OSM      H12F     HAL2     0.900000E-01   1.00800           0
      8290 MEMB     73       OSM      H12G     HAL2     0.900000E-01   1.00800           0
      8291 MEMB     73       OSM      C13F     CTL2    -0.180000       12.0110           0
      8292 MEMB     73       OSM      H13F     HAL2     0.900000E-01   1.00800           0
      8293 MEMB     73       OSM      H13G     HAL2     0.900000E-01   1.00800           0
      8294 MEMB     73       OSM      C14F     CTL2    -0.180000       12.0110           0
      8295 MEMB     73       OSM      H14F     HAL2     0.900000E-01   1.00800           0
      8296 MEMB     73       OSM      H14G     HAL2     0.900000E-01   1.00800           0
      8297 MEMB     73       OSM      C15F     CTL2    -0.180000       12.0110           0
      8298 MEMB     73       OSM      H15F     HAL2     0.900000E-01   1.00800           0
      8299 MEMB     73       OSM      H15G     HAL2     0.900000E-01   1.00800           0
      8300 MEMB     73       OSM      C16F     CTL2    -0.180000       12.0110           0
      8301 MEMB     73       OSM      H16F     HAL2     0.900000E-01   1.00800           0
      8302 MEMB     73       OSM      H16G     HAL2     0.900000E-01   1.00800           0
      8303 MEMB     73       OSM      C17F     CTL2    -0.180000       12.0110           0
      8304 MEMB     73       OSM      H17F     HAL2     0.900000E-01   1.00800           0
      8305 MEMB     73       OSM      H17G     HAL2     0.900000E-01   1.00800           0
      8306 MEMB     73       OSM      C18F     CTL3    -0.270000       12.0110           0
      8307 MEMB     73       OSM      H18F     HAL3     0.900000E-01   1.00800           0
      8308 MEMB     73       OSM      H18G     HAL3     0.900000E-01   1.00800           0
      8309 MEMB     73       OSM      H18H     HAL3     0.900000E-01   1.00800           0
      8310 MEMB     74       OSM      N        NTL     -0.600000       14.0070           0
      8311 MEMB     74       OSM      C15      CTL5    -0.350000       12.0110           0
      8312 MEMB     74       OSM      H15A     HL       0.250000       1.00800           0
      8313 MEMB     74       OSM      H15B     HL       0.250000       1.00800           0
      8314 MEMB     74       OSM      H15C     HL       0.250000       1.00800           0
      8315 MEMB     74       OSM      C14      CTL5    -0.350000       12.0110           0
      8316 MEMB     74       OSM      H14A     HL       0.250000       1.00800           0
      8317 MEMB     74       OSM      H14B     HL       0.250000       1.00800           0
      8318 MEMB     74       OSM      H14C     HL       0.250000       1.00800           0
      8319 MEMB     74       OSM      C13      CTL5    -0.350000       12.0110           0
      8320 MEMB     74       OSM      H13A     HL       0.250000       1.00800           0
      8321 MEMB     74       OSM      H13B     HL       0.250000       1.00800           0
      8322 MEMB     74       OSM      H13C     HL       0.250000       1.00800           0
      8323 MEMB     74       OSM      C12      CTL2    -0.100000       12.0110           0
      8324 MEMB     74       OSM      H12A     HL       0.250000       1.00800           0
      8325 MEMB     74       OSM      H12B     HL       0.250000       1.00800           0
      8326 MEMB     74       OSM      C11      CTL2    -0.800000E-01   12.0110           0
      8327 MEMB     74       OSM      H11A     HAL2     0.900000E-01   1.00800           0
      8328 MEMB     74       OSM      H11B     HAL2     0.900000E-01   1.00800           0
      8329 MEMB     74       OSM      P        PL        1.50000       30.9740           0
      8330 MEMB     74       OSM      O13      O2L     -0.780000       15.9994           0
      8331 MEMB     74       OSM      O14      O2L     -0.780000       15.9994           0
      8332 MEMB     74       OSM      O11      OSLP    -0.570000       15.9994           0
      8333 MEMB     74       OSM      O12      OSLP    -0.570000       15.9994           0
      8334 MEMB     74       OSM      C1S      CTL2    -0.800000E-01   12.0110           0
      8335 MEMB     74       OSM      H1S      HAL2     0.900000E-01   1.00800           0
      8336 MEMB     74       OSM      H1T      HAL2     0.900000E-01   1.00800           0
      8337 MEMB     74       OSM      NF       NHL     -0.700000       14.0070           0
      8338 MEMB     74       OSM      HNF      H        0.350000       1.00800           0
      8339 MEMB     74       OSM      C2S      CTL1     0.300000       12.0110           0
      8340 MEMB     74       OSM      H2S      HAL1     0.500000E-01   1.00800           0
      8341 MEMB     74       OSM      C3S      CTO1     0.500000       12.0110           0
      8342 MEMB     74       OSM      H3S      HAL1    -0.110000       1.00800           0
      8343 MEMB     74       OSM      O3       OHL     -0.690000       15.9994           0
      8344 MEMB     74       OSM      HO3      HOL      0.300000       1.00800           0
      8345 MEMB     74       OSM      C4S      CEL3    -0.150000       12.0110           0
      8346 MEMB     74       OSM      H4S      HEL1     0.150000       1.00800           0
      8347 MEMB     74       OSM      C5S      CEL3    -0.150000       12.0110           0
      8348 MEMB     74       OSM      H5S      HEL1     0.150000       1.00800           0
      8349 MEMB     74       OSM      C6S      CTL2    -0.180000       12.0110           0
      8350 MEMB     74       OSM      H6S      HAL2     0.900000E-01   1.00800           0
      8351 MEMB     74       OSM      H6T      HAL2     0.900000E-01   1.00800           0
      8352 MEMB     74       OSM      C7S      CTL2    -0.180000       12.0110           0
      8353 MEMB     74       OSM      H7S      HAL2     0.900000E-01   1.00800           0
      8354 MEMB     74       OSM      H7T      HAL2     0.900000E-01   1.00800           0
      8355 MEMB     74       OSM      C8S      CTL2    -0.180000       12.0110           0
      8356 MEMB     74       OSM      H8S      HAL2     0.900000E-01   1.00800           0
      8357 MEMB     74       OSM      H8T      HAL2     0.900000E-01   1.00800           0
      8358 MEMB     74       OSM      C9S      CTL2    -0.180000       12.0110           0
      8359 MEMB     74       OSM      H9S      HAL2     0.900000E-01   1.00800           0
      8360 MEMB     74       OSM      H9T      HAL2     0.900000E-01   1.00800           0
      8361 MEMB     74       OSM      C10S     CTL2    -0.180000       12.0110           0
      8362 MEMB     74       OSM      H10S     HAL2     0.900000E-01   1.00800           0
      8363 MEMB     74       OSM      H10T     HAL2     0.900000E-01   1.00800           0
      8364 MEMB     74       OSM      C11S     CTL2    -0.180000       12.0110           0
      8365 MEMB     74       OSM      H11S     HAL2     0.900000E-01   1.00800           0
      8366 MEMB     74       OSM      H11T     HAL2     0.900000E-01   1.00800           0
      8367 MEMB     74       OSM      C12S     CTL2    -0.180000       12.0110           0
      8368 MEMB     74       OSM      H12S     HAL2     0.900000E-01   1.00800           0
      8369 MEMB     74       OSM      H12T     HAL2     0.900000E-01   1.00800           0
      8370 MEMB     74       OSM      C13S     CTL2    -0.180000       12.0110           0
      8371 MEMB     74       OSM      H13S     HAL2     0.900000E-01   1.00800           0
      8372 MEMB     74       OSM      H13T     HAL2     0.900000E-01   1.00800           0
      8373 MEMB     74       OSM      C14S     CTL2    -0.180000       12.0110           0
      8374 MEMB     74       OSM      H14S     HAL2     0.900000E-01   1.00800           0
      8375 MEMB     74       OSM      H14T     HAL2     0.900000E-01   1.00800           0
      8376 MEMB     74       OSM      C15S     CTL2    -0.180000       12.0110           0
      8377 MEMB     74       OSM      H15S     HAL2     0.900000E-01   1.00800           0
      8378 MEMB     74       OSM      H15T     HAL2     0.900000E-01   1.00800           0
      8379 MEMB     74       OSM      C16S     CTL2    -0.180000       12.0110           0
      8380 MEMB     74       OSM      H16S     HAL2     0.900000E-01   1.00800           0
      8381 MEMB     74       OSM      H16T     HAL2     0.900000E-01   1.00800           0
      8382 MEMB     74       OSM      C17S     CTL2    -0.180000       12.0110           0
      8383 MEMB     74       OSM      H17S     HAL2     0.900000E-01   1.00800           0
      8384 MEMB     74       OSM      H17T     HAL2     0.900000E-01   1.00800           0
      8385 MEMB     74       OSM      C18S     CTL3    -0.270000       12.0110           0
      8386 MEMB     74       OSM      H18S     HAL3     0.900000E-01   1.00800           0
      8387 MEMB     74       OSM      H18T     HAL3     0.900000E-01   1.00800           0
      8388 MEMB     74       OSM      H18U     HAL3     0.900000E-01   1.00800           0
      8389 MEMB     74       OSM      C1F      C        0.550000       12.0110           0
      8390 MEMB     74       OSM      OF       O       -0.600000       15.9994           0
      8391 MEMB     74       OSM      C2F      CTL2    -0.700000E-01   12.0110           0
      8392 MEMB     74       OSM      H2F      HAL2     0.600000E-01   1.00800           0
      8393 MEMB     74       OSM      H2G      HAL2     0.600000E-01   1.00800           0
      8394 MEMB     74       OSM      C3F      CTL2    -0.180000       12.0110           0
      8395 MEMB     74       OSM      H3F      HAL2     0.900000E-01   1.00800           0
      8396 MEMB     74       OSM      H3G      HAL2     0.900000E-01   1.00800           0
      8397 MEMB     74       OSM      C4F      CTL2    -0.180000       12.0110           0
      8398 MEMB     74       OSM      H4F      HAL2     0.900000E-01   1.00800           0
      8399 MEMB     74       OSM      H4G      HAL2     0.900000E-01   1.00800           0
      8400 MEMB     74       OSM      C5F      CTL2    -0.180000       12.0110           0
      8401 MEMB     74       OSM      H5F      HAL2     0.900000E-01   1.00800           0
      8402 MEMB     74       OSM      H5G      HAL2     0.900000E-01   1.00800           0
      8403 MEMB     74       OSM      C6F      CTL2    -0.180000       12.0110           0
      8404 MEMB     74       OSM      H6F      HAL2     0.900000E-01   1.00800           0
      8405 MEMB     74       OSM      H6G      HAL2     0.900000E-01   1.00800           0
      8406 MEMB     74       OSM      C7F      CTL2    -0.180000       12.0110           0
      8407 MEMB     74       OSM      H7F      HAL2     0.900000E-01   1.00800           0
      8408 MEMB     74       OSM      H7G      HAL2     0.900000E-01   1.00800           0
      8409 MEMB     74       OSM      C8F      CTL2    -0.180000       12.0110           0
      8410 MEMB     74       OSM      H8F      HAL2     0.900000E-01   1.00800           0
      8411 MEMB     74       OSM      H8G      HAL2     0.900000E-01   1.00800           0
      8412 MEMB     74       OSM      C9F      CEL1    -0.150000       12.0110           0
      8413 MEMB     74       OSM      H9F      HEL1     0.150000       1.00800           0
      8414 MEMB     74       OSM      C10F     CEL1    -0.150000       12.0110           0
      8415 MEMB     74       OSM      H10F     HEL1     0.150000       1.00800           0
      8416 MEMB     74       OSM      C11F     CTL2    -0.180000       12.0110           0
      8417 MEMB     74       OSM      H11F     HAL2     0.900000E-01   1.00800           0
      8418 MEMB     74       OSM      H11G     HAL2     0.900000E-01   1.00800           0
      8419 MEMB     74       OSM      C12F     CTL2    -0.180000       12.0110           0
      8420 MEMB     74       OSM      H12F     HAL2     0.900000E-01   1.00800           0
      8421 MEMB     74       OSM      H12G     HAL2     0.900000E-01   1.00800           0
      8422 MEMB     74       OSM      C13F     CTL2    -0.180000       12.0110           0
      8423 MEMB     74       OSM      H13F     HAL2     0.900000E-01   1.00800           0
      8424 MEMB     74       OSM      H13G     HAL2     0.900000E-01   1.00800           0
      8425 MEMB     74       OSM      C14F     CTL2    -0.180000       12.0110           0
      8426 MEMB     74       OSM      H14F     HAL2     0.900000E-01   1.00800           0
      8427 MEMB     74       OSM      H14G     HAL2     0.900000E-01   1.00800           0
      8428 MEMB     74       OSM      C15F     CTL2    -0.180000       12.0110           0
      8429 MEMB     74       OSM      H15F     HAL2     0.900000E-01   1.00800           0
      8430 MEMB     74       OSM      H15G     HAL2     0.900000E-01   1.00800           0
      8431 MEMB     74       OSM      C16F     CTL2    -0.180000       12.0110           0
      8432 MEMB     74       OSM      H16F     HAL2     0.900000E-01   1.00800           0
      8433 MEMB     74       OSM      H16G     HAL2     0.900000E-01   1.00800           0
      8434 MEMB     74       OSM      C17F     CTL2    -0.180000       12.0110           0
      8435 MEMB     74       OSM      H17F     HAL2     0.900000E-01   1.00800           0
      8436 MEMB     74       OSM      H17G     HAL2     0.900000E-01   1.00800           0
      8437 MEMB     74       OSM      C18F     CTL3    -0.270000       12.0110           0
      8438 MEMB     74       OSM      H18F     HAL3     0.900000E-01   1.00800           0
      8439 MEMB     74       OSM      H18G     HAL3     0.900000E-01   1.00800           0
      8440 MEMB     74       OSM      H18H     HAL3     0.900000E-01   1.00800           0
      8441 MEMB     75       SAPC     N        NTL     -0.600000       14.0070           0
      8442 MEMB     75       SAPC     C12      CTL2    -0.100000       12.0110           0
      8443 MEMB     75       SAPC     H12A     HL       0.250000       1.00800           0
      8444 MEMB     75       SAPC     H12B     HL       0.250000       1.00800           0
      8445 MEMB     75       SAPC     C13      CTL5    -0.350000       12.0110           0
      8446 MEMB     75       SAPC     H13A     HL       0.250000       1.00800           0
      8447 MEMB     75       SAPC     H13B     HL       0.250000       1.00800           0
      8448 MEMB     75       SAPC     H13C     HL       0.250000       1.00800           0
      8449 MEMB     75       SAPC     C14      CTL5    -0.350000       12.0110           0
      8450 MEMB     75       SAPC     H14A     HL       0.250000       1.00800           0
      8451 MEMB     75       SAPC     H14B     HL       0.250000       1.00800           0
      8452 MEMB     75       SAPC     H14C     HL       0.250000       1.00800           0
      8453 MEMB     75       SAPC     C15      CTL5    -0.350000       12.0110           0
      8454 MEMB     75       SAPC     H15A     HL       0.250000       1.00800           0
      8455 MEMB     75       SAPC     H15B     HL       0.250000       1.00800           0
      8456 MEMB     75       SAPC     H15C     HL       0.250000       1.00800           0
      8457 MEMB     75       SAPC     C11      CTL2    -0.800000E-01   12.0110           0
      8458 MEMB     75       SAPC     H11A     HAL2     0.900000E-01   1.00800           0
      8459 MEMB     75       SAPC     H11B     HAL2     0.900000E-01   1.00800           0
      8460 MEMB     75       SAPC     P        PL        1.50000       30.9740           0
      8461 MEMB     75       SAPC     O13      O2L     -0.780000       15.9994           0
      8462 MEMB     75       SAPC     O14      O2L     -0.780000       15.9994           0
      8463 MEMB     75       SAPC     O12      OSLP    -0.570000       15.9994           0
      8464 MEMB     75       SAPC     O11      OSLP    -0.570000       15.9994           0
      8465 MEMB     75       SAPC     C1       CTL2    -0.800000E-01   12.0110           0
      8466 MEMB     75       SAPC     HA       HAL2     0.900000E-01   1.00800           0
      8467 MEMB     75       SAPC     HB       HAL2     0.900000E-01   1.00800           0
      8468 MEMB     75       SAPC     C2       CTL1     0.170000       12.0110           0
      8469 MEMB     75       SAPC     HS       HAL1     0.900000E-01   1.00800           0
      8470 MEMB     75       SAPC     O21      OSL     -0.490000       15.9994           0
      8471 MEMB     75       SAPC     C21      CL       0.900000       12.0110           0
      8472 MEMB     75       SAPC     O22      OBL     -0.630000       15.9994           0
      8473 MEMB     75       SAPC     C22      CTL2    -0.220000       12.0110           0
      8474 MEMB     75       SAPC     H2R      HAL2     0.900000E-01   1.00800           0
      8475 MEMB     75       SAPC     H2S      HAL2     0.900000E-01   1.00800           0
      8476 MEMB     75       SAPC     C3       CTL2     0.800000E-01   12.0110           0
      8477 MEMB     75       SAPC     HX       HAL2     0.900000E-01   1.00800           0
      8478 MEMB     75       SAPC     HY       HAL2     0.900000E-01   1.00800           0
      8479 MEMB     75       SAPC     O31      OSL     -0.490000       15.9994           0
      8480 MEMB     75       SAPC     C31      CL       0.900000       12.0110           0
      8481 MEMB     75       SAPC     O32      OBL     -0.630000       15.9994           0
      8482 MEMB     75       SAPC     C32      CTL2    -0.220000       12.0110           0
      8483 MEMB     75       SAPC     H2X      HAL2     0.900000E-01   1.00800           0
      8484 MEMB     75       SAPC     H2Y      HAL2     0.900000E-01   1.00800           0
      8485 MEMB     75       SAPC     C23      CTL2    -0.180000       12.0110           0
      8486 MEMB     75       SAPC     H3R      HAL2     0.900000E-01   1.00800           0
      8487 MEMB     75       SAPC     H3S      HAL2     0.900000E-01   1.00800           0
      8488 MEMB     75       SAPC     C24      CTL2    -0.180000       12.0110           0
      8489 MEMB     75       SAPC     H4R      HAL2     0.900000E-01   1.00800           0
      8490 MEMB     75       SAPC     H4S      HAL2     0.900000E-01   1.00800           0
      8491 MEMB     75       SAPC     C25      CEL1    -0.150000       12.0110           0
      8492 MEMB     75       SAPC     H5R      HEL1     0.150000       1.00800           0
      8493 MEMB     75       SAPC     C26      CEL1    -0.150000       12.0110           0
      8494 MEMB     75       SAPC     H6R      HEL1     0.150000       1.00800           0
      8495 MEMB     75       SAPC     C27      CTL2    -0.180000       12.0110           0
      8496 MEMB     75       SAPC     H7R      HAL2     0.900000E-01   1.00800           0
      8497 MEMB     75       SAPC     H7S      HAL2     0.900000E-01   1.00800           0
      8498 MEMB     75       SAPC     C28      CEL1    -0.150000       12.0110           0
      8499 MEMB     75       SAPC     H8R      HEL1     0.150000       1.00800           0
      8500 MEMB     75       SAPC     C29      CEL1    -0.150000       12.0110           0
      8501 MEMB     75       SAPC     H9R      HEL1     0.150000       1.00800           0
      8502 MEMB     75       SAPC     C210     CTL2    -0.180000       12.0110           0
      8503 MEMB     75       SAPC     H10R     HAL2     0.900000E-01   1.00800           0
      8504 MEMB     75       SAPC     H10S     HAL2     0.900000E-01   1.00800           0
      8505 MEMB     75       SAPC     C211     CEL1    -0.150000       12.0110           0
      8506 MEMB     75       SAPC     H11R     HEL1     0.150000       1.00800           0
      8507 MEMB     75       SAPC     C212     CEL1    -0.150000       12.0110           0
      8508 MEMB     75       SAPC     H12R     HEL1     0.150000       1.00800           0
      8509 MEMB     75       SAPC     C213     CTL2    -0.180000       12.0110           0
      8510 MEMB     75       SAPC     H13R     HAL2     0.900000E-01   1.00800           0
      8511 MEMB     75       SAPC     H13S     HAL2     0.900000E-01   1.00800           0
      8512 MEMB     75       SAPC     C214     CEL1    -0.150000       12.0110           0
      8513 MEMB     75       SAPC     H14R     HEL1     0.150000       1.00800           0
      8514 MEMB     75       SAPC     C215     CEL1    -0.150000       12.0110           0
      8515 MEMB     75       SAPC     H15R     HEL1     0.150000       1.00800           0
      8516 MEMB     75       SAPC     C216     CTL2    -0.180000       12.0110           0
      8517 MEMB     75       SAPC     H16R     HAL2     0.900000E-01   1.00800           0
      8518 MEMB     75       SAPC     H16S     HAL2     0.900000E-01   1.00800           0
      8519 MEMB     75       SAPC     C217     CTL2    -0.180000       12.0110           0
      8520 MEMB     75       SAPC     H17R     HAL2     0.900000E-01   1.00800           0
      8521 MEMB     75       SAPC     H17S     HAL2     0.900000E-01   1.00800           0
      8522 MEMB     75       SAPC     C218     CTL2    -0.270000       12.0110           0
      8523 MEMB     75       SAPC     H18R     HAL2     0.900000E-01   1.00800           0
      8524 MEMB     75       SAPC     H18S     HAL2     0.900000E-01   1.00800           0
      8525 MEMB     75       SAPC     C219     CTL2    -0.180000       12.0110           0
      8526 MEMB     75       SAPC     H19R     HAL2     0.900000E-01   1.00800           0
      8527 MEMB     75       SAPC     H19S     HAL2     0.900000E-01   1.00800           0
      8528 MEMB     75       SAPC     C220     CTL3    -0.180000       12.0110           0
      8529 MEMB     75       SAPC     H20R     HAL3     0.900000E-01   1.00800           0
      8530 MEMB     75       SAPC     H20S     HAL3     0.900000E-01   1.00800           0
      8531 MEMB     75       SAPC     H20T     HAL3     0.900000E-01   1.00800           0
      8532 MEMB     75       SAPC     C33      CTL2    -0.180000       12.0110           0
      8533 MEMB     75       SAPC     H3X      HAL2     0.900000E-01   1.00800           0
      8534 MEMB     75       SAPC     H3Y      HAL2     0.900000E-01   1.00800           0
      8535 MEMB     75       SAPC     C34      CTL2    -0.180000       12.0110           0
      8536 MEMB     75       SAPC     H4X      HAL2     0.900000E-01   1.00800           0
      8537 MEMB     75       SAPC     H4Y      HAL2     0.900000E-01   1.00800           0
      8538 MEMB     75       SAPC     C35      CTL2    -0.180000       12.0110           0
      8539 MEMB     75       SAPC     H5X      HAL2     0.900000E-01   1.00800           0
      8540 MEMB     75       SAPC     H5Y      HAL2     0.900000E-01   1.00800           0
      8541 MEMB     75       SAPC     C36      CTL2    -0.180000       12.0110           0
      8542 MEMB     75       SAPC     H6X      HAL2     0.900000E-01   1.00800           0
      8543 MEMB     75       SAPC     H6Y      HAL2     0.900000E-01   1.00800           0
      8544 MEMB     75       SAPC     C37      CTL2    -0.180000       12.0110           0
      8545 MEMB     75       SAPC     H7X      HAL2     0.900000E-01   1.00800           0
      8546 MEMB     75       SAPC     H7Y      HAL2     0.900000E-01   1.00800           0
      8547 MEMB     75       SAPC     C38      CTL2    -0.180000       12.0110           0
      8548 MEMB     75       SAPC     H8X      HAL2     0.900000E-01   1.00800           0
      8549 MEMB     75       SAPC     H8Y      HAL2     0.900000E-01   1.00800           0
      8550 MEMB     75       SAPC     C39      CTL2    -0.180000       12.0110           0
      8551 MEMB     75       SAPC     H9X      HAL2     0.900000E-01   1.00800           0
      8552 MEMB     75       SAPC     H9Y      HAL2     0.900000E-01   1.00800           0
      8553 MEMB     75       SAPC     C310     CTL2    -0.180000       12.0110           0
      8554 MEMB     75       SAPC     H10X     HAL2     0.900000E-01   1.00800           0
      8555 MEMB     75       SAPC     H10Y     HAL2     0.900000E-01   1.00800           0
      8556 MEMB     75       SAPC     C311     CTL2    -0.180000       12.0110           0
      8557 MEMB     75       SAPC     H11X     HAL2     0.900000E-01   1.00800           0
      8558 MEMB     75       SAPC     H11Y     HAL2     0.900000E-01   1.00800           0
      8559 MEMB     75       SAPC     C312     CTL2    -0.180000       12.0110           0
      8560 MEMB     75       SAPC     H12X     HAL2     0.900000E-01   1.00800           0
      8561 MEMB     75       SAPC     H12Y     HAL2     0.900000E-01   1.00800           0
      8562 MEMB     75       SAPC     C313     CTL2    -0.180000       12.0110           0
      8563 MEMB     75       SAPC     H13X     HAL2     0.900000E-01   1.00800           0
      8564 MEMB     75       SAPC     H13Y     HAL2     0.900000E-01   1.00800           0
      8565 MEMB     75       SAPC     C314     CTL2    -0.180000       12.0110           0
      8566 MEMB     75       SAPC     H14X     HAL2     0.900000E-01   1.00800           0
      8567 MEMB     75       SAPC     H14Y     HAL2     0.900000E-01   1.00800           0
      8568 MEMB     75       SAPC     C315     CTL2    -0.180000       12.0110           0
      8569 MEMB     75       SAPC     H15X     HAL2     0.900000E-01   1.00800           0
      8570 MEMB     75       SAPC     H15Y     HAL2     0.900000E-01   1.00800           0
      8571 MEMB     75       SAPC     C316     CTL2    -0.180000       12.0110           0
      8572 MEMB     75       SAPC     H16X     HAL2     0.900000E-01   1.00800           0
      8573 MEMB     75       SAPC     H16Y     HAL2     0.900000E-01   1.00800           0
      8574 MEMB     75       SAPC     C317     CTL2    -0.180000       12.0110           0
      8575 MEMB     75       SAPC     H17X     HAL2     0.900000E-01   1.00800           0
      8576 MEMB     75       SAPC     H17Y     HAL2     0.900000E-01   1.00800           0
      8577 MEMB     75       SAPC     C318     CTL3    -0.270000       12.0110           0
      8578 MEMB     75       SAPC     H18X     HAL3     0.900000E-01   1.00800           0
      8579 MEMB     75       SAPC     H18Y     HAL3     0.900000E-01   1.00800           0
      8580 MEMB     75       SAPC     H18Z     HAL3     0.900000E-01   1.00800           0
      8581 MEMB     76       SAPS     N        NH3L    -0.300000       14.0070           0
      8582 MEMB     76       SAPS     HN1      HCL      0.330000       1.00800           0
      8583 MEMB     76       SAPS     HN2      HCL      0.330000       1.00800           0
      8584 MEMB     76       SAPS     HN3      HCL      0.330000       1.00800           0
      8585 MEMB     76       SAPS     C12      CTL1     0.210000       12.0110           0
      8586 MEMB     76       SAPS     H12A     HBL      0.100000       1.00800           0
      8587 MEMB     76       SAPS     C13      CCL      0.340000       12.0110           0
      8588 MEMB     76       SAPS     O13A     OCL     -0.670000       15.9994           0
      8589 MEMB     76       SAPS     O13B     OCL     -0.670000       15.9994           0
      8590 MEMB     76       SAPS     C11      CTL2    -0.800000E-01   12.0110           0
      8591 MEMB     76       SAPS     H11A     HAL2     0.900000E-01   1.00800           0
      8592 MEMB     76       SAPS     H11B     HAL2     0.900000E-01   1.00800           0
      8593 MEMB     76       SAPS     P        PL        1.50000       30.9740           0
      8594 MEMB     76       SAPS     O13      O2L     -0.780000       15.9994           0
      8595 MEMB     76       SAPS     O14      O2L     -0.780000       15.9994           0
      8596 MEMB     76       SAPS     O12      OSLP    -0.570000       15.9994           0
      8597 MEMB     76       SAPS     O11      OSLP    -0.570000       15.9994           0
      8598 MEMB     76       SAPS     C1       CTL2    -0.800000E-01   12.0110           0
      8599 MEMB     76       SAPS     HA       HAL2     0.900000E-01   1.00800           0
      8600 MEMB     76       SAPS     HB       HAL2     0.900000E-01   1.00800           0
      8601 MEMB     76       SAPS     C2       CTL1     0.170000       12.0110           0
      8602 MEMB     76       SAPS     HS       HAL1     0.900000E-01   1.00800           0
      8603 MEMB     76       SAPS     O21      OSL     -0.490000       15.9994           0
      8604 MEMB     76       SAPS     C21      CL       0.900000       12.0110           0
      8605 MEMB     76       SAPS     O22      OBL     -0.630000       15.9994           0
      8606 MEMB     76       SAPS     C22      CTL2    -0.220000       12.0110           0
      8607 MEMB     76       SAPS     H2R      HAL2     0.900000E-01   1.00800           0
      8608 MEMB     76       SAPS     H2S      HAL2     0.900000E-01   1.00800           0
      8609 MEMB     76       SAPS     C3       CTL2     0.800000E-01   12.0110           0
      8610 MEMB     76       SAPS     HX       HAL2     0.900000E-01   1.00800           0
      8611 MEMB     76       SAPS     HY       HAL2     0.900000E-01   1.00800           0
      8612 MEMB     76       SAPS     O31      OSL     -0.490000       15.9994           0
      8613 MEMB     76       SAPS     C31      CL       0.900000       12.0110           0
      8614 MEMB     76       SAPS     O32      OBL     -0.630000       15.9994           0
      8615 MEMB     76       SAPS     C32      CTL2    -0.220000       12.0110           0
      8616 MEMB     76       SAPS     H2X      HAL2     0.900000E-01   1.00800           0
      8617 MEMB     76       SAPS     H2Y      HAL2     0.900000E-01   1.00800           0
      8618 MEMB     76       SAPS     C23      CTL2    -0.180000       12.0110           0
      8619 MEMB     76       SAPS     H3R      HAL2     0.900000E-01   1.00800           0
      8620 MEMB     76       SAPS     H3S      HAL2     0.900000E-01   1.00800           0
      8621 MEMB     76       SAPS     C24      CTL2    -0.180000       12.0110           0
      8622 MEMB     76       SAPS     H4R      HAL2     0.900000E-01   1.00800           0
      8623 MEMB     76       SAPS     H4S      HAL2     0.900000E-01   1.00800           0
      8624 MEMB     76       SAPS     C25      CEL1    -0.150000       12.0110           0
      8625 MEMB     76       SAPS     H5R      HEL1     0.150000       1.00800           0
      8626 MEMB     76       SAPS     C26      CEL1    -0.150000       12.0110           0
      8627 MEMB     76       SAPS     H6R      HEL1     0.150000       1.00800           0
      8628 MEMB     76       SAPS     C27      CTL2    -0.180000       12.0110           0
      8629 MEMB     76       SAPS     H7R      HAL2     0.900000E-01   1.00800           0
      8630 MEMB     76       SAPS     H7S      HAL2     0.900000E-01   1.00800           0
      8631 MEMB     76       SAPS     C28      CEL1    -0.150000       12.0110           0
      8632 MEMB     76       SAPS     H8R      HEL1     0.150000       1.00800           0
      8633 MEMB     76       SAPS     C29      CEL1    -0.150000       12.0110           0
      8634 MEMB     76       SAPS     H9R      HEL1     0.150000       1.00800           0
      8635 MEMB     76       SAPS     C210     CTL2    -0.180000       12.0110           0
      8636 MEMB     76       SAPS     H10R     HAL2     0.900000E-01   1.00800           0
      8637 MEMB     76       SAPS     H10S     HAL2     0.900000E-01   1.00800           0
      8638 MEMB     76       SAPS     C211     CEL1    -0.150000       12.0110           0
      8639 MEMB     76       SAPS     H11R     HEL1     0.150000       1.00800           0
      8640 MEMB     76       SAPS     C212     CEL1    -0.150000       12.0110           0
      8641 MEMB     76       SAPS     H12R     HEL1     0.150000       1.00800           0
      8642 MEMB     76       SAPS     C213     CTL2    -0.180000       12.0110           0
      8643 MEMB     76       SAPS     H13R     HAL2     0.900000E-01   1.00800           0
      8644 MEMB     76       SAPS     H13S     HAL2     0.900000E-01   1.00800           0
      8645 MEMB     76       SAPS     C214     CEL1    -0.150000       12.0110           0
      8646 MEMB     76       SAPS     H14R     HEL1     0.150000       1.00800           0
      8647 MEMB     76       SAPS     C215     CEL1    -0.150000       12.0110           0
      8648 MEMB     76       SAPS     H15R     HEL1     0.150000       1.00800           0
      8649 MEMB     76       SAPS     C216     CTL2    -0.180000       12.0110           0
      8650 MEMB     76       SAPS     H16R     HAL2     0.900000E-01   1.00800           0
      8651 MEMB     76       SAPS     H16S     HAL2     0.900000E-01   1.00800           0
      8652 MEMB     76       SAPS     C217     CTL2    -0.180000       12.0110           0
      8653 MEMB     76       SAPS     H17R     HAL2     0.900000E-01   1.00800           0
      8654 MEMB     76       SAPS     H17S     HAL2     0.900000E-01   1.00800           0
      8655 MEMB     76       SAPS     C218     CTL2    -0.180000       12.0110           0
      8656 MEMB     76       SAPS     H18R     HAL2     0.900000E-01   1.00800           0
      8657 MEMB     76       SAPS     H18S     HAL2     0.900000E-01   1.00800           0
      8658 MEMB     76       SAPS     C219     CTL2    -0.180000       12.0110           0
      8659 MEMB     76       SAPS     H19R     HAL2     0.900000E-01   1.00800           0
      8660 MEMB     76       SAPS     H19S     HAL2     0.900000E-01   1.00800           0
      8661 MEMB     76       SAPS     C220     CTL3    -0.270000       12.0110           0
      8662 MEMB     76       SAPS     H20R     HAL3     0.900000E-01   1.00800           0
      8663 MEMB     76       SAPS     H20S     HAL3     0.900000E-01   1.00800           0
      8664 MEMB     76       SAPS     H20T     HAL3     0.900000E-01   1.00800           0
      8665 MEMB     76       SAPS     C33      CTL2    -0.180000       12.0110           0
      8666 MEMB     76       SAPS     H3X      HAL2     0.900000E-01   1.00800           0
      8667 MEMB     76       SAPS     H3Y      HAL2     0.900000E-01   1.00800           0
      8668 MEMB     76       SAPS     C34      CTL2    -0.180000       12.0110           0
      8669 MEMB     76       SAPS     H4X      HAL2     0.900000E-01   1.00800           0
      8670 MEMB     76       SAPS     H4Y      HAL2     0.900000E-01   1.00800           0
      8671 MEMB     76       SAPS     C35      CTL2    -0.180000       12.0110           0
      8672 MEMB     76       SAPS     H5X      HAL2     0.900000E-01   1.00800           0
      8673 MEMB     76       SAPS     H5Y      HAL2     0.900000E-01   1.00800           0
      8674 MEMB     76       SAPS     C36      CTL2    -0.180000       12.0110           0
      8675 MEMB     76       SAPS     H6X      HAL2     0.900000E-01   1.00800           0
      8676 MEMB     76       SAPS     H6Y      HAL2     0.900000E-01   1.00800           0
      8677 MEMB     76       SAPS     C37      CTL2    -0.180000       12.0110           0
      8678 MEMB     76       SAPS     H7X      HAL2     0.900000E-01   1.00800           0
      8679 MEMB     76       SAPS     H7Y      HAL2     0.900000E-01   1.00800           0
      8680 MEMB     76       SAPS     C38      CTL2    -0.180000       12.0110           0
      8681 MEMB     76       SAPS     H8X      HAL2     0.900000E-01   1.00800           0
      8682 MEMB     76       SAPS     H8Y      HAL2     0.900000E-01   1.00800           0
      8683 MEMB     76       SAPS     C39      CTL2    -0.180000       12.0110           0
      8684 MEMB     76       SAPS     H9X      HAL2     0.900000E-01   1.00800           0
      8685 MEMB     76       SAPS     H9Y      HAL2     0.900000E-01   1.00800           0
      8686 MEMB     76       SAPS     C310     CTL2    -0.180000       12.0110           0
      8687 MEMB     76       SAPS     H10X     HAL2     0.900000E-01   1.00800           0
      8688 MEMB     76       SAPS     H10Y     HAL2     0.900000E-01   1.00800           0
      8689 MEMB     76       SAPS     C311     CTL2    -0.180000       12.0110           0
      8690 MEMB     76       SAPS     H11X     HAL2     0.900000E-01   1.00800           0
      8691 MEMB     76       SAPS     H11Y     HAL2     0.900000E-01   1.00800           0
      8692 MEMB     76       SAPS     C312     CTL2    -0.180000       12.0110           0
      8693 MEMB     76       SAPS     H12X     HAL2     0.900000E-01   1.00800           0
      8694 MEMB     76       SAPS     H12Y     HAL2     0.900000E-01   1.00800           0
      8695 MEMB     76       SAPS     C313     CTL2    -0.180000       12.0110           0
      8696 MEMB     76       SAPS     H13X     HAL2     0.900000E-01   1.00800           0
      8697 MEMB     76       SAPS     H13Y     HAL2     0.900000E-01   1.00800           0
      8698 MEMB     76       SAPS     C314     CTL2    -0.180000       12.0110           0
      8699 MEMB     76       SAPS     H14X     HAL2     0.900000E-01   1.00800           0
      8700 MEMB     76       SAPS     H14Y     HAL2     0.900000E-01   1.00800           0
      8701 MEMB     76       SAPS     C315     CTL2    -0.180000       12.0110           0
      8702 MEMB     76       SAPS     H15X     HAL2     0.900000E-01   1.00800           0
      8703 MEMB     76       SAPS     H15Y     HAL2     0.900000E-01   1.00800           0
      8704 MEMB     76       SAPS     C316     CTL2    -0.180000       12.0110           0
      8705 MEMB     76       SAPS     H16X     HAL2     0.900000E-01   1.00800           0
      8706 MEMB     76       SAPS     H16Y     HAL2     0.900000E-01   1.00800           0
      8707 MEMB     76       SAPS     C317     CTL2    -0.180000       12.0110           0
      8708 MEMB     76       SAPS     H17X     HAL2     0.900000E-01   1.00800           0
      8709 MEMB     76       SAPS     H17Y     HAL2     0.900000E-01   1.00800           0
      8710 MEMB     76       SAPS     C318     CTL3    -0.270000       12.0110           0
      8711 MEMB     76       SAPS     H18X     HAL3     0.900000E-01   1.00800           0
      8712 MEMB     76       SAPS     H18Y     HAL3     0.900000E-01   1.00800           0
      8713 MEMB     76       SAPS     H18Z     HAL3     0.900000E-01   1.00800           0
      8714 MEMB     77       OSM      N        NTL     -0.600000       14.0070           0
      8715 MEMB     77       OSM      C15      CTL5    -0.350000       12.0110           0
      8716 MEMB     77       OSM      H15A     HL       0.250000       1.00800           0
      8717 MEMB     77       OSM      H15B     HL       0.250000       1.00800           0
      8718 MEMB     77       OSM      H15C     HL       0.250000       1.00800           0
      8719 MEMB     77       OSM      C14      CTL5    -0.350000       12.0110           0
      8720 MEMB     77       OSM      H14A     HL       0.250000       1.00800           0
      8721 MEMB     77       OSM      H14B     HL       0.250000       1.00800           0
      8722 MEMB     77       OSM      H14C     HL       0.250000       1.00800           0
      8723 MEMB     77       OSM      C13      CTL5    -0.350000       12.0110           0
      8724 MEMB     77       OSM      H13A     HL       0.250000       1.00800           0
      8725 MEMB     77       OSM      H13B     HL       0.250000       1.00800           0
      8726 MEMB     77       OSM      H13C     HL       0.250000       1.00800           0
      8727 MEMB     77       OSM      C12      CTL2    -0.100000       12.0110           0
      8728 MEMB     77       OSM      H12A     HL       0.250000       1.00800           0
      8729 MEMB     77       OSM      H12B     HL       0.250000       1.00800           0
      8730 MEMB     77       OSM      C11      CTL2    -0.800000E-01   12.0110           0
      8731 MEMB     77       OSM      H11A     HAL2     0.900000E-01   1.00800           0
      8732 MEMB     77       OSM      H11B     HAL2     0.900000E-01   1.00800           0
      8733 MEMB     77       OSM      P        PL        1.50000       30.9740           0
      8734 MEMB     77       OSM      O13      O2L     -0.780000       15.9994           0
      8735 MEMB     77       OSM      O14      O2L     -0.780000       15.9994           0
      8736 MEMB     77       OSM      O11      OSLP    -0.570000       15.9994           0
      8737 MEMB     77       OSM      O12      OSLP    -0.570000       15.9994           0
      8738 MEMB     77       OSM      C1S      CTL2    -0.800000E-01   12.0110           0
      8739 MEMB     77       OSM      H1S      HAL2     0.900000E-01   1.00800           0
      8740 MEMB     77       OSM      H1T      HAL2     0.900000E-01   1.00800           0
      8741 MEMB     77       OSM      NF       NHL     -0.700000       14.0070           0
      8742 MEMB     77       OSM      HNF      H        0.350000       1.00800           0
      8743 MEMB     77       OSM      C2S      CTL1     0.300000       12.0110           0
      8744 MEMB     77       OSM      H2S      HAL1     0.500000E-01   1.00800           0
      8745 MEMB     77       OSM      C3S      CTO1     0.500000       12.0110           0
      8746 MEMB     77       OSM      H3S      HAL1    -0.110000       1.00800           0
      8747 MEMB     77       OSM      O3       OHL     -0.690000       15.9994           0
      8748 MEMB     77       OSM      HO3      HOL      0.300000       1.00800           0
      8749 MEMB     77       OSM      C4S      CEL3    -0.150000       12.0110           0
      8750 MEMB     77       OSM      H4S      HEL1     0.150000       1.00800           0
      8751 MEMB     77       OSM      C5S      CEL3    -0.150000       12.0110           0
      8752 MEMB     77       OSM      H5S      HEL1     0.150000       1.00800           0
      8753 MEMB     77       OSM      C6S      CTL2    -0.180000       12.0110           0
      8754 MEMB     77       OSM      H6S      HAL2     0.900000E-01   1.00800           0
      8755 MEMB     77       OSM      H6T      HAL2     0.900000E-01   1.00800           0
      8756 MEMB     77       OSM      C7S      CTL2    -0.180000       12.0110           0
      8757 MEMB     77       OSM      H7S      HAL2     0.900000E-01   1.00800           0
      8758 MEMB     77       OSM      H7T      HAL2     0.900000E-01   1.00800           0
      8759 MEMB     77       OSM      C8S      CTL2    -0.180000       12.0110           0
      8760 MEMB     77       OSM      H8S      HAL2     0.900000E-01   1.00800           0
      8761 MEMB     77       OSM      H8T      HAL2     0.900000E-01   1.00800           0
      8762 MEMB     77       OSM      C9S      CTL2    -0.180000       12.0110           0
      8763 MEMB     77       OSM      H9S      HAL2     0.900000E-01   1.00800           0
      8764 MEMB     77       OSM      H9T      HAL2     0.900000E-01   1.00800           0
      8765 MEMB     77       OSM      C10S     CTL2    -0.180000       12.0110           0
      8766 MEMB     77       OSM      H10S     HAL2     0.900000E-01   1.00800           0
      8767 MEMB     77       OSM      H10T     HAL2     0.900000E-01   1.00800           0
      8768 MEMB     77       OSM      C11S     CTL2    -0.180000       12.0110           0
      8769 MEMB     77       OSM      H11S     HAL2     0.900000E-01   1.00800           0
      8770 MEMB     77       OSM      H11T     HAL2     0.900000E-01   1.00800           0
      8771 MEMB     77       OSM      C12S     CTL2    -0.180000       12.0110           0
      8772 MEMB     77       OSM      H12S     HAL2     0.900000E-01   1.00800           0
      8773 MEMB     77       OSM      H12T     HAL2     0.900000E-01   1.00800           0
      8774 MEMB     77       OSM      C13S     CTL2    -0.180000       12.0110           0
      8775 MEMB     77       OSM      H13S     HAL2     0.900000E-01   1.00800           0
      8776 MEMB     77       OSM      H13T     HAL2     0.900000E-01   1.00800           0
      8777 MEMB     77       OSM      C14S     CTL2    -0.180000       12.0110           0
      8778 MEMB     77       OSM      H14S     HAL2     0.900000E-01   1.00800           0
      8779 MEMB     77       OSM      H14T     HAL2     0.900000E-01   1.00800           0
      8780 MEMB     77       OSM      C15S     CTL2    -0.180000       12.0110           0
      8781 MEMB     77       OSM      H15S     HAL2     0.900000E-01   1.00800           0
      8782 MEMB     77       OSM      H15T     HAL2     0.900000E-01   1.00800           0
      8783 MEMB     77       OSM      C16S     CTL2    -0.180000       12.0110           0
      8784 MEMB     77       OSM      H16S     HAL2     0.900000E-01   1.00800           0
      8785 MEMB     77       OSM      H16T     HAL2     0.900000E-01   1.00800           0
      8786 MEMB     77       OSM      C17S     CTL2    -0.180000       12.0110           0
      8787 MEMB     77       OSM      H17S     HAL2     0.900000E-01   1.00800           0
      8788 MEMB     77       OSM      H17T     HAL2     0.900000E-01   1.00800           0
      8789 MEMB     77       OSM      C18S     CTL3    -0.270000       12.0110           0
      8790 MEMB     77       OSM      H18S     HAL3     0.900000E-01   1.00800           0
      8791 MEMB     77       OSM      H18T     HAL3     0.900000E-01   1.00800           0
      8792 MEMB     77       OSM      H18U     HAL3     0.900000E-01   1.00800           0
      8793 MEMB     77       OSM      C1F      C        0.550000       12.0110           0
      8794 MEMB     77       OSM      OF       O       -0.600000       15.9994           0
      8795 MEMB     77       OSM      C2F      CTL2    -0.700000E-01   12.0110           0
      8796 MEMB     77       OSM      H2F      HAL2     0.600000E-01   1.00800           0
      8797 MEMB     77       OSM      H2G      HAL2     0.600000E-01   1.00800           0
      8798 MEMB     77       OSM      C3F      CTL2    -0.180000       12.0110           0
      8799 MEMB     77       OSM      H3F      HAL2     0.900000E-01   1.00800           0
      8800 MEMB     77       OSM      H3G      HAL2     0.900000E-01   1.00800           0
      8801 MEMB     77       OSM      C4F      CTL2    -0.180000       12.0110           0
      8802 MEMB     77       OSM      H4F      HAL2     0.900000E-01   1.00800           0
      8803 MEMB     77       OSM      H4G      HAL2     0.900000E-01   1.00800           0
      8804 MEMB     77       OSM      C5F      CTL2    -0.180000       12.0110           0
      8805 MEMB     77       OSM      H5F      HAL2     0.900000E-01   1.00800           0
      8806 MEMB     77       OSM      H5G      HAL2     0.900000E-01   1.00800           0
      8807 MEMB     77       OSM      C6F      CTL2    -0.180000       12.0110           0
      8808 MEMB     77       OSM      H6F      HAL2     0.900000E-01   1.00800           0
      8809 MEMB     77       OSM      H6G      HAL2     0.900000E-01   1.00800           0
      8810 MEMB     77       OSM      C7F      CTL2    -0.180000       12.0110           0
      8811 MEMB     77       OSM      H7F      HAL2     0.900000E-01   1.00800           0
      8812 MEMB     77       OSM      H7G      HAL2     0.900000E-01   1.00800           0
      8813 MEMB     77       OSM      C8F      CTL2    -0.180000       12.0110           0
      8814 MEMB     77       OSM      H8F      HAL2     0.900000E-01   1.00800           0
      8815 MEMB     77       OSM      H8G      HAL2     0.900000E-01   1.00800           0
      8816 MEMB     77       OSM      C9F      CEL1    -0.150000       12.0110           0
      8817 MEMB     77       OSM      H9F      HEL1     0.150000       1.00800           0
      8818 MEMB     77       OSM      C10F     CEL1    -0.150000       12.0110           0
      8819 MEMB     77       OSM      H10F     HEL1     0.150000       1.00800           0
      8820 MEMB     77       OSM      C11F     CTL2    -0.180000       12.0110           0
      8821 MEMB     77       OSM      H11F     HAL2     0.900000E-01   1.00800           0
      8822 MEMB     77       OSM      H11G     HAL2     0.900000E-01   1.00800           0
      8823 MEMB     77       OSM      C12F     CTL2    -0.180000       12.0110           0
      8824 MEMB     77       OSM      H12F     HAL2     0.900000E-01   1.00800           0
      8825 MEMB     77       OSM      H12G     HAL2     0.900000E-01   1.00800           0
      8826 MEMB     77       OSM      C13F     CTL2    -0.180000       12.0110           0
      8827 MEMB     77       OSM      H13F     HAL2     0.900000E-01   1.00800           0
      8828 MEMB     77       OSM      H13G     HAL2     0.900000E-01   1.00800           0
      8829 MEMB     77       OSM      C14F     CTL2    -0.180000       12.0110           0
      8830 MEMB     77       OSM      H14F     HAL2     0.900000E-01   1.00800           0
      8831 MEMB     77       OSM      H14G     HAL2     0.900000E-01   1.00800           0
      8832 MEMB     77       OSM      C15F     CTL2    -0.180000       12.0110           0
      8833 MEMB     77       OSM      H15F     HAL2     0.900000E-01   1.00800           0
      8834 MEMB     77       OSM      H15G     HAL2     0.900000E-01   1.00800           0
      8835 MEMB     77       OSM      C16F     CTL2    -0.180000       12.0110           0
      8836 MEMB     77       OSM      H16F     HAL2     0.900000E-01   1.00800           0
      8837 MEMB     77       OSM      H16G     HAL2     0.900000E-01   1.00800           0
      8838 MEMB     77       OSM      C17F     CTL2    -0.180000       12.0110           0
      8839 MEMB     77       OSM      H17F     HAL2     0.900000E-01   1.00800           0
      8840 MEMB     77       OSM      H17G     HAL2     0.900000E-01   1.00800           0
      8841 MEMB     77       OSM      C18F     CTL3    -0.270000       12.0110           0
      8842 MEMB     77       OSM      H18F     HAL3     0.900000E-01   1.00800           0
      8843 MEMB     77       OSM      H18G     HAL3     0.900000E-01   1.00800           0
      8844 MEMB     77       OSM      H18H     HAL3     0.900000E-01   1.00800           0
      8845 MEMB     78       SAPE     N        NH3L    -0.300000       14.0070           0
      8846 MEMB     78       SAPE     HN1      HCL      0.330000       1.00800           0
      8847 MEMB     78       SAPE     HN2      HCL      0.330000       1.00800           0
      8848 MEMB     78       SAPE     HN3      HCL      0.330000       1.00800           0
      8849 MEMB     78       SAPE     C12      CTL2     0.130000       12.0110           0
      8850 MEMB     78       SAPE     H12A     HAL2     0.900000E-01   1.00800           0
      8851 MEMB     78       SAPE     H12B     HAL2     0.900000E-01   1.00800           0
      8852 MEMB     78       SAPE     C11      CTL2    -0.800000E-01   12.0110           0
      8853 MEMB     78       SAPE     H11A     HAL2     0.900000E-01   1.00800           0
      8854 MEMB     78       SAPE     H11B     HAL2     0.900000E-01   1.00800           0
      8855 MEMB     78       SAPE     P        PL        1.50000       30.9740           0
      8856 MEMB     78       SAPE     O13      O2L     -0.780000       15.9994           0
      8857 MEMB     78       SAPE     O14      O2L     -0.780000       15.9994           0
      8858 MEMB     78       SAPE     O12      OSLP    -0.570000       15.9994           0
      8859 MEMB     78       SAPE     O11      OSLP    -0.570000       15.9994           0
      8860 MEMB     78       SAPE     C1       CTL2    -0.800000E-01   12.0110           0
      8861 MEMB     78       SAPE     HA       HAL2     0.900000E-01   1.00800           0
      8862 MEMB     78       SAPE     HB       HAL2     0.900000E-01   1.00800           0
      8863 MEMB     78       SAPE     C2       CTL1     0.170000       12.0110           0
      8864 MEMB     78       SAPE     HS       HAL1     0.900000E-01   1.00800           0
      8865 MEMB     78       SAPE     O21      OSL     -0.490000       15.9994           0
      8866 MEMB     78       SAPE     C21      CL       0.900000       12.0110           0
      8867 MEMB     78       SAPE     O22      OBL     -0.630000       15.9994           0
      8868 MEMB     78       SAPE     C22      CTL2    -0.220000       12.0110           0
      8869 MEMB     78       SAPE     H2R      HAL2     0.900000E-01   1.00800           0
      8870 MEMB     78       SAPE     H2S      HAL2     0.900000E-01   1.00800           0
      8871 MEMB     78       SAPE     C3       CTL2     0.800000E-01   12.0110           0
      8872 MEMB     78       SAPE     HX       HAL2     0.900000E-01   1.00800           0
      8873 MEMB     78       SAPE     HY       HAL2     0.900000E-01   1.00800           0
      8874 MEMB     78       SAPE     O31      OSL     -0.490000       15.9994           0
      8875 MEMB     78       SAPE     C31      CL       0.900000       12.0110           0
      8876 MEMB     78       SAPE     O32      OBL     -0.630000       15.9994           0
      8877 MEMB     78       SAPE     C32      CTL2    -0.220000       12.0110           0
      8878 MEMB     78       SAPE     H2X      HAL2     0.900000E-01   1.00800           0
      8879 MEMB     78       SAPE     H2Y      HAL2     0.900000E-01   1.00800           0
      8880 MEMB     78       SAPE     C23      CTL2    -0.180000       12.0110           0
      8881 MEMB     78       SAPE     H3R      HAL2     0.900000E-01   1.00800           0
      8882 MEMB     78       SAPE     H3S      HAL2     0.900000E-01   1.00800           0
      8883 MEMB     78       SAPE     C24      CTL2    -0.180000       12.0110           0
      8884 MEMB     78       SAPE     H4R      HAL2     0.900000E-01   1.00800           0
      8885 MEMB     78       SAPE     H4S      HAL2     0.900000E-01   1.00800           0
      8886 MEMB     78       SAPE     C25      CEL1    -0.150000       12.0110           0
      8887 MEMB     78       SAPE     H5R      HEL1     0.150000       1.00800           0
      8888 MEMB     78       SAPE     C26      CEL1    -0.150000       12.0110           0
      8889 MEMB     78       SAPE     H6R      HEL1     0.150000       1.00800           0
      8890 MEMB     78       SAPE     C27      CTL2    -0.180000       12.0110           0
      8891 MEMB     78       SAPE     H7R      HAL2     0.900000E-01   1.00800           0
      8892 MEMB     78       SAPE     H7S      HAL2     0.900000E-01   1.00800           0
      8893 MEMB     78       SAPE     C28      CEL1    -0.150000       12.0110           0
      8894 MEMB     78       SAPE     H8R      HEL1     0.150000       1.00800           0
      8895 MEMB     78       SAPE     C29      CEL1    -0.150000       12.0110           0
      8896 MEMB     78       SAPE     H9R      HEL1     0.150000       1.00800           0
      8897 MEMB     78       SAPE     C210     CTL2    -0.180000       12.0110           0
      8898 MEMB     78       SAPE     H10R     HAL2     0.900000E-01   1.00800           0
      8899 MEMB     78       SAPE     H10S     HAL2     0.900000E-01   1.00800           0
      8900 MEMB     78       SAPE     C211     CEL1    -0.150000       12.0110           0
      8901 MEMB     78       SAPE     H11R     HEL1     0.150000       1.00800           0
      8902 MEMB     78       SAPE     C212     CEL1    -0.150000       12.0110           0
      8903 MEMB     78       SAPE     H12R     HEL1     0.150000       1.00800           0
      8904 MEMB     78       SAPE     C213     CTL2    -0.180000       12.0110           0
      8905 MEMB     78       SAPE     H13R     HAL2     0.900000E-01   1.00800           0
      8906 MEMB     78       SAPE     H13S     HAL2     0.900000E-01   1.00800           0
      8907 MEMB     78       SAPE     C214     CEL1    -0.150000       12.0110           0
      8908 MEMB     78       SAPE     H14R     HEL1     0.150000       1.00800           0
      8909 MEMB     78       SAPE     C215     CEL1    -0.150000       12.0110           0
      8910 MEMB     78       SAPE     H15R     HEL1     0.150000       1.00800           0
      8911 MEMB     78       SAPE     C216     CTL2    -0.180000       12.0110           0
      8912 MEMB     78       SAPE     H16R     HAL2     0.900000E-01   1.00800           0
      8913 MEMB     78       SAPE     H16S     HAL2     0.900000E-01   1.00800           0
      8914 MEMB     78       SAPE     C217     CTL2    -0.180000       12.0110           0
      8915 MEMB     78       SAPE     H17R     HAL2     0.900000E-01   1.00800           0
      8916 MEMB     78       SAPE     H17S     HAL2     0.900000E-01   1.00800           0
      8917 MEMB     78       SAPE     C218     CTL2    -0.180000       12.0110           0
      8918 MEMB     78       SAPE     H18R     HAL2     0.900000E-01   1.00800           0
      8919 MEMB     78       SAPE     H18S     HAL2     0.900000E-01   1.00800           0
      8920 MEMB     78       SAPE     C219     CTL2    -0.180000       12.0110           0
      8921 MEMB     78       SAPE     H19R     HAL2     0.900000E-01   1.00800           0
      8922 MEMB     78       SAPE     H19S     HAL2     0.900000E-01   1.00800           0
      8923 MEMB     78       SAPE     C220     CTL3    -0.270000       12.0110           0
      8924 MEMB     78       SAPE     H20R     HAL3     0.900000E-01   1.00800           0
      8925 MEMB     78       SAPE     H20S     HAL3     0.900000E-01   1.00800           0
      8926 MEMB     78       SAPE     H20T     HAL3     0.900000E-01   1.00800           0
      8927 MEMB     78       SAPE     C33      CTL2    -0.180000       12.0110           0
      8928 MEMB     78       SAPE     H3X      HAL2     0.900000E-01   1.00800           0
      8929 MEMB     78       SAPE     H3Y      HAL2     0.900000E-01   1.00800           0
      8930 MEMB     78       SAPE     C34      CTL2    -0.180000       12.0110           0
      8931 MEMB     78       SAPE     H4X      HAL2     0.900000E-01   1.00800           0
      8932 MEMB     78       SAPE     H4Y      HAL2     0.900000E-01   1.00800           0
      8933 MEMB     78       SAPE     C35      CTL2    -0.180000       12.0110           0
      8934 MEMB     78       SAPE     H5X      HAL2     0.900000E-01   1.00800           0
      8935 MEMB     78       SAPE     H5Y      HAL2     0.900000E-01   1.00800           0
      8936 MEMB     78       SAPE     C36      CTL2    -0.180000       12.0110           0
      8937 MEMB     78       SAPE     H6X      HAL2     0.900000E-01   1.00800           0
      8938 MEMB     78       SAPE     H6Y      HAL2     0.900000E-01   1.00800           0
      8939 MEMB     78       SAPE     C37      CTL2    -0.180000       12.0110           0
      8940 MEMB     78       SAPE     H7X      HAL2     0.900000E-01   1.00800           0
      8941 MEMB     78       SAPE     H7Y      HAL2     0.900000E-01   1.00800           0
      8942 MEMB     78       SAPE     C38      CTL2    -0.180000       12.0110           0
      8943 MEMB     78       SAPE     H8X      HAL2     0.900000E-01   1.00800           0
      8944 MEMB     78       SAPE     H8Y      HAL2     0.900000E-01   1.00800           0
      8945 MEMB     78       SAPE     C39      CTL2    -0.180000       12.0110           0
      8946 MEMB     78       SAPE     H9X      HAL2     0.900000E-01   1.00800           0
      8947 MEMB     78       SAPE     H9Y      HAL2     0.900000E-01   1.00800           0
      8948 MEMB     78       SAPE     C310     CTL2    -0.180000       12.0110           0
      8949 MEMB     78       SAPE     H10X     HAL2     0.900000E-01   1.00800           0
      8950 MEMB     78       SAPE     H10Y     HAL2     0.900000E-01   1.00800           0
      8951 MEMB     78       SAPE     C311     CTL2    -0.180000       12.0110           0
      8952 MEMB     78       SAPE     H11X     HAL2     0.900000E-01   1.00800           0
      8953 MEMB     78       SAPE     H11Y     HAL2     0.900000E-01   1.00800           0
      8954 MEMB     78       SAPE     C312     CTL2    -0.180000       12.0110           0
      8955 MEMB     78       SAPE     H12X     HAL2     0.900000E-01   1.00800           0
      8956 MEMB     78       SAPE     H12Y     HAL2     0.900000E-01   1.00800           0
      8957 MEMB     78       SAPE     C313     CTL2    -0.180000       12.0110           0
      8958 MEMB     78       SAPE     H13X     HAL2     0.900000E-01   1.00800           0
      8959 MEMB     78       SAPE     H13Y     HAL2     0.900000E-01   1.00800           0
      8960 MEMB     78       SAPE     C314     CTL2    -0.180000       12.0110           0
      8961 MEMB     78       SAPE     H14X     HAL2     0.900000E-01   1.00800           0
      8962 MEMB     78       SAPE     H14Y     HAL2     0.900000E-01   1.00800           0
      8963 MEMB     78       SAPE     C315     CTL2    -0.180000       12.0110           0
      8964 MEMB     78       SAPE     H15X     HAL2     0.900000E-01   1.00800           0
      8965 MEMB     78       SAPE     H15Y     HAL2     0.900000E-01   1.00800           0
      8966 MEMB     78       SAPE     C316     CTL2    -0.180000       12.0110           0
      8967 MEMB     78       SAPE     H16X     HAL2     0.900000E-01   1.00800           0
      8968 MEMB     78       SAPE     H16Y     HAL2     0.900000E-01   1.00800           0
      8969 MEMB     78       SAPE     C317     CTL2    -0.180000       12.0110           0
      8970 MEMB     78       SAPE     H17X     HAL2     0.900000E-01   1.00800           0
      8971 MEMB     78       SAPE     H17Y     HAL2     0.900000E-01   1.00800           0
      8972 MEMB     78       SAPE     C318     CTL3    -0.270000       12.0110           0
      8973 MEMB     78       SAPE     H18X     HAL3     0.900000E-01   1.00800           0
      8974 MEMB     78       SAPE     H18Y     HAL3     0.900000E-01   1.00800           0
      8975 MEMB     78       SAPE     H18Z     HAL3     0.900000E-01   1.00800           0
      8976 MEMB     79       CHL1     C3       CRL1     0.140000       12.0110           0
      8977 MEMB     79       CHL1     H3       HGA1     0.900000E-01   1.00800           0
      8978 MEMB     79       CHL1     O3       OHL     -0.660000       15.9994           0
      8979 MEMB     79       CHL1     H3'      HOL      0.430000       1.00800           0
      8980 MEMB     79       CHL1     C4       CRL2    -0.180000       12.0110           0
      8981 MEMB     79       CHL1     H4A      HGA2     0.900000E-01   1.00800           0
      8982 MEMB     79       CHL1     H4B      HGA2     0.900000E-01   1.00800           0
      8983 MEMB     79       CHL1     C5       CEL1      0.00000       12.0110           0
      8984 MEMB     79       CHL1     C6       CEL1    -0.150000       12.0110           0
      8985 MEMB     79       CHL1     H6       HEL1     0.150000       1.00800           0
      8986 MEMB     79       CHL1     C7       CRL2    -0.180000       12.0110           0
      8987 MEMB     79       CHL1     H7A      HGA2     0.900000E-01   1.00800           0
      8988 MEMB     79       CHL1     H7B      HGA2     0.900000E-01   1.00800           0
      8989 MEMB     79       CHL1     C8       CRL1    -0.900000E-01   12.0110           0
      8990 MEMB     79       CHL1     H8       HGA1     0.900000E-01   1.00800           0
      8991 MEMB     79       CHL1     C14      CRL1    -0.900000E-01   12.0110           0
      8992 MEMB     79       CHL1     H14      HGA1     0.900000E-01   1.00800           0
      8993 MEMB     79       CHL1     C15      CRL2    -0.180000       12.0110           0
      8994 MEMB     79       CHL1     H15A     HGA2     0.900000E-01   1.00800           0
      8995 MEMB     79       CHL1     H15B     HGA2     0.900000E-01   1.00800           0
      8996 MEMB     79       CHL1     C16      CRL2    -0.180000       12.0110           0
      8997 MEMB     79       CHL1     H16A     HGA2     0.900000E-01   1.00800           0
      8998 MEMB     79       CHL1     H16B     HGA2     0.900000E-01   1.00800           0
      8999 MEMB     79       CHL1     C17      CRL1    -0.900000E-01   12.0110           0
      9000 MEMB     79       CHL1     H17      HGA1     0.900000E-01   1.00800           0
      9001 MEMB     79       CHL1     C13      CRL1      0.00000       12.0110           0
      9002 MEMB     79       CHL1     C18      CTL3    -0.270000       12.0110           0
      9003 MEMB     79       CHL1     H18A     HAL3     0.900000E-01   1.00800           0
      9004 MEMB     79       CHL1     H18B     HAL3     0.900000E-01   1.00800           0
      9005 MEMB     79       CHL1     H18C     HAL3     0.900000E-01   1.00800           0
      9006 MEMB     79       CHL1     C12      CRL2    -0.180000       12.0110           0
      9007 MEMB     79       CHL1     H12A     HGA2     0.900000E-01   1.00800           0
      9008 MEMB     79       CHL1     H12B     HGA2     0.900000E-01   1.00800           0
      9009 MEMB     79       CHL1     C11      CRL2    -0.180000       12.0110           0
      9010 MEMB     79       CHL1     H11A     HGA2     0.900000E-01   1.00800           0
      9011 MEMB     79       CHL1     H11B     HGA2     0.900000E-01   1.00800           0
      9012 MEMB     79       CHL1     C9       CRL1    -0.900000E-01   12.0110           0
      9013 MEMB     79       CHL1     H9       HGA1     0.900000E-01   1.00800           0
      9014 MEMB     79       CHL1     C10      CRL1      0.00000       12.0110           0
      9015 MEMB     79       CHL1     C19      CTL3    -0.270000       12.0110           0
      9016 MEMB     79       CHL1     H19A     HAL3     0.900000E-01   1.00800           0
      9017 MEMB     79       CHL1     H19B     HAL3     0.900000E-01   1.00800           0
      9018 MEMB     79       CHL1     H19C     HAL3     0.900000E-01   1.00800           0
      9019 MEMB     79       CHL1     C1       CRL2    -0.180000       12.0110           0
      9020 MEMB     79       CHL1     H1A      HGA2     0.900000E-01   1.00800           0
      9021 MEMB     79       CHL1     H1B      HGA2     0.900000E-01   1.00800           0
      9022 MEMB     79       CHL1     C2       CRL2    -0.180000       12.0110           0
      9023 MEMB     79       CHL1     H2A      HGA2     0.900000E-01   1.00800           0
      9024 MEMB     79       CHL1     H2B      HGA2     0.900000E-01   1.00800           0
      9025 MEMB     79       CHL1     C20      CTL1    -0.900000E-01   12.0110           0
      9026 MEMB     79       CHL1     H20      HAL1     0.900000E-01   1.00800           0
      9027 MEMB     79       CHL1     C21      CTL3    -0.270000       12.0110           0
      9028 MEMB     79       CHL1     H21A     HAL3     0.900000E-01   1.00800           0
      9029 MEMB     79       CHL1     H21B     HAL3     0.900000E-01   1.00800           0
      9030 MEMB     79       CHL1     H21C     HAL3     0.900000E-01   1.00800           0
      9031 MEMB     79       CHL1     C22      CTL2    -0.180000       12.0110           0
      9032 MEMB     79       CHL1     H22A     HAL2     0.900000E-01   1.00800           0
      9033 MEMB     79       CHL1     H22B     HAL2     0.900000E-01   1.00800           0
      9034 MEMB     79       CHL1     C23      CTL2    -0.180000       12.0110           0
      9035 MEMB     79       CHL1     H23A     HAL2     0.900000E-01   1.00800           0
      9036 MEMB     79       CHL1     H23B     HAL2     0.900000E-01   1.00800           0
      9037 MEMB     79       CHL1     C24      CTL2    -0.180000       12.0110           0
      9038 MEMB     79       CHL1     H24A     HAL2     0.900000E-01   1.00800           0
      9039 MEMB     79       CHL1     H24B     HAL2     0.900000E-01   1.00800           0
      9040 MEMB     79       CHL1     C25      CTL1    -0.900000E-01   12.0110           0
      9041 MEMB     79       CHL1     H25      HAL1     0.900000E-01   1.00800           0
      9042 MEMB     79       CHL1     C26      CTL3    -0.270000       12.0110           0
      9043 MEMB     79       CHL1     H26A     HAL3     0.900000E-01   1.00800           0
      9044 MEMB     79       CHL1     H26B     HAL3     0.900000E-01   1.00800           0
      9045 MEMB     79       CHL1     H26C     HAL3     0.900000E-01   1.00800           0
      9046 MEMB     79       CHL1     C27      CTL3    -0.270000       12.0110           0
      9047 MEMB     79       CHL1     H27A     HAL3     0.900000E-01   1.00800           0
      9048 MEMB     79       CHL1     H27B     HAL3     0.900000E-01   1.00800           0
      9049 MEMB     79       CHL1     H27C     HAL3     0.900000E-01   1.00800           0
      9050 MEMB     80       SAPE     N        NH3L    -0.300000       14.0070           0
      9051 MEMB     80       SAPE     HN1      HCL      0.330000       1.00800           0
      9052 MEMB     80       SAPE     HN2      HCL      0.330000       1.00800           0
      9053 MEMB     80       SAPE     HN3      HCL      0.330000       1.00800           0
      9054 MEMB     80       SAPE     C12      CTL2     0.130000       12.0110           0
      9055 MEMB     80       SAPE     H12A     HAL2     0.900000E-01   1.00800           0
      9056 MEMB     80       SAPE     H12B     HAL2     0.900000E-01   1.00800           0
      9057 MEMB     80       SAPE     C11      CTL2    -0.800000E-01   12.0110           0
      9058 MEMB     80       SAPE     H11A     HAL2     0.900000E-01   1.00800           0
      9059 MEMB     80       SAPE     H11B     HAL2     0.900000E-01   1.00800           0
      9060 MEMB     80       SAPE     P        PL        1.50000       30.9740           0
      9061 MEMB     80       SAPE     O13      O2L     -0.780000       15.9994           0
      9062 MEMB     80       SAPE     O14      O2L     -0.780000       15.9994           0
      9063 MEMB     80       SAPE     O12      OSLP    -0.570000       15.9994           0
      9064 MEMB     80       SAPE     O11      OSLP    -0.570000       15.9994           0
      9065 MEMB     80       SAPE     C1       CTL2    -0.800000E-01   12.0110           0
      9066 MEMB     80       SAPE     HA       HAL2     0.900000E-01   1.00800           0
      9067 MEMB     80       SAPE     HB       HAL2     0.900000E-01   1.00800           0
      9068 MEMB     80       SAPE     C2       CTL1     0.170000       12.0110           0
      9069 MEMB     80       SAPE     HS       HAL1     0.900000E-01   1.00800           0
      9070 MEMB     80       SAPE     O21      OSL     -0.490000       15.9994           0
      9071 MEMB     80       SAPE     C21      CL       0.900000       12.0110           0
      9072 MEMB     80       SAPE     O22      OBL     -0.630000       15.9994           0
      9073 MEMB     80       SAPE     C22      CTL2    -0.220000       12.0110           0
      9074 MEMB     80       SAPE     H2R      HAL2     0.900000E-01   1.00800           0
      9075 MEMB     80       SAPE     H2S      HAL2     0.900000E-01   1.00800           0
      9076 MEMB     80       SAPE     C3       CTL2     0.800000E-01   12.0110           0
      9077 MEMB     80       SAPE     HX       HAL2     0.900000E-01   1.00800           0
      9078 MEMB     80       SAPE     HY       HAL2     0.900000E-01   1.00800           0
      9079 MEMB     80       SAPE     O31      OSL     -0.490000       15.9994           0
      9080 MEMB     80       SAPE     C31      CL       0.900000       12.0110           0
      9081 MEMB     80       SAPE     O32      OBL     -0.630000       15.9994           0
      9082 MEMB     80       SAPE     C32      CTL2    -0.220000       12.0110           0
      9083 MEMB     80       SAPE     H2X      HAL2     0.900000E-01   1.00800           0
      9084 MEMB     80       SAPE     H2Y      HAL2     0.900000E-01   1.00800           0
      9085 MEMB     80       SAPE     C23      CTL2    -0.180000       12.0110           0
      9086 MEMB     80       SAPE     H3R      HAL2     0.900000E-01   1.00800           0
      9087 MEMB     80       SAPE     H3S      HAL2     0.900000E-01   1.00800           0
      9088 MEMB     80       SAPE     C24      CTL2    -0.180000       12.0110           0
      9089 MEMB     80       SAPE     H4R      HAL2     0.900000E-01   1.00800           0
      9090 MEMB     80       SAPE     H4S      HAL2     0.900000E-01   1.00800           0
      9091 MEMB     80       SAPE     C25      CEL1    -0.150000       12.0110           0
      9092 MEMB     80       SAPE     H5R      HEL1     0.150000       1.00800           0
      9093 MEMB     80       SAPE     C26      CEL1    -0.150000       12.0110           0
      9094 MEMB     80       SAPE     H6R      HEL1     0.150000       1.00800           0
      9095 MEMB     80       SAPE     C27      CTL2    -0.180000       12.0110           0
      9096 MEMB     80       SAPE     H7R      HAL2     0.900000E-01   1.00800           0
      9097 MEMB     80       SAPE     H7S      HAL2     0.900000E-01   1.00800           0
      9098 MEMB     80       SAPE     C28      CEL1    -0.150000       12.0110           0
      9099 MEMB     80       SAPE     H8R      HEL1     0.150000       1.00800           0
      9100 MEMB     80       SAPE     C29      CEL1    -0.150000       12.0110           0
      9101 MEMB     80       SAPE     H9R      HEL1     0.150000       1.00800           0
      9102 MEMB     80       SAPE     C210     CTL2    -0.180000       12.0110           0
      9103 MEMB     80       SAPE     H10R     HAL2     0.900000E-01   1.00800           0
      9104 MEMB     80       SAPE     H10S     HAL2     0.900000E-01   1.00800           0
      9105 MEMB     80       SAPE     C211     CEL1    -0.150000       12.0110           0
      9106 MEMB     80       SAPE     H11R     HEL1     0.150000       1.00800           0
      9107 MEMB     80       SAPE     C212     CEL1    -0.150000       12.0110           0
      9108 MEMB     80       SAPE     H12R     HEL1     0.150000       1.00800           0
      9109 MEMB     80       SAPE     C213     CTL2    -0.180000       12.0110           0
      9110 MEMB     80       SAPE     H13R     HAL2     0.900000E-01   1.00800           0
      9111 MEMB     80       SAPE     H13S     HAL2     0.900000E-01   1.00800           0
      9112 MEMB     80       SAPE     C214     CEL1    -0.150000       12.0110           0
      9113 MEMB     80       SAPE     H14R     HEL1     0.150000       1.00800           0
      9114 MEMB     80       SAPE     C215     CEL1    -0.150000       12.0110           0
      9115 MEMB     80       SAPE     H15R     HEL1     0.150000       1.00800           0
      9116 MEMB     80       SAPE     C216     CTL2    -0.180000       12.0110           0
      9117 MEMB     80       SAPE     H16R     HAL2     0.900000E-01   1.00800           0
      9118 MEMB     80       SAPE     H16S     HAL2     0.900000E-01   1.00800           0
      9119 MEMB     80       SAPE     C217     CTL2    -0.180000       12.0110           0
      9120 MEMB     80       SAPE     H17R     HAL2     0.900000E-01   1.00800           0
      9121 MEMB     80       SAPE     H17S     HAL2     0.900000E-01   1.00800           0
      9122 MEMB     80       SAPE     C218     CTL2    -0.180000       12.0110           0
      9123 MEMB     80       SAPE     H18R     HAL2     0.900000E-01   1.00800           0
      9124 MEMB     80       SAPE     H18S     HAL2     0.900000E-01   1.00800           0
      9125 MEMB     80       SAPE     C219     CTL2    -0.180000       12.0110           0
      9126 MEMB     80       SAPE     H19R     HAL2     0.900000E-01   1.00800           0
      9127 MEMB     80       SAPE     H19S     HAL2     0.900000E-01   1.00800           0
      9128 MEMB     80       SAPE     C220     CTL3    -0.270000       12.0110           0
      9129 MEMB     80       SAPE     H20R     HAL3     0.900000E-01   1.00800           0
      9130 MEMB     80       SAPE     H20S     HAL3     0.900000E-01   1.00800           0
      9131 MEMB     80       SAPE     H20T     HAL3     0.900000E-01   1.00800           0
      9132 MEMB     80       SAPE     C33      CTL2    -0.180000       12.0110           0
      9133 MEMB     80       SAPE     H3X      HAL2     0.900000E-01   1.00800           0
      9134 MEMB     80       SAPE     H3Y      HAL2     0.900000E-01   1.00800           0
      9135 MEMB     80       SAPE     C34      CTL2    -0.180000       12.0110           0
      9136 MEMB     80       SAPE     H4X      HAL2     0.900000E-01   1.00800           0
      9137 MEMB     80       SAPE     H4Y      HAL2     0.900000E-01   1.00800           0
      9138 MEMB     80       SAPE     C35      CTL2    -0.180000       12.0110           0
      9139 MEMB     80       SAPE     H5X      HAL2     0.900000E-01   1.00800           0
      9140 MEMB     80       SAPE     H5Y      HAL2     0.900000E-01   1.00800           0
      9141 MEMB     80       SAPE     C36      CTL2    -0.180000       12.0110           0
      9142 MEMB     80       SAPE     H6X      HAL2     0.900000E-01   1.00800           0
      9143 MEMB     80       SAPE     H6Y      HAL2     0.900000E-01   1.00800           0
      9144 MEMB     80       SAPE     C37      CTL2    -0.180000       12.0110           0
      9145 MEMB     80       SAPE     H7X      HAL2     0.900000E-01   1.00800           0
      9146 MEMB     80       SAPE     H7Y      HAL2     0.900000E-01   1.00800           0
      9147 MEMB     80       SAPE     C38      CTL2    -0.180000       12.0110           0
      9148 MEMB     80       SAPE     H8X      HAL2     0.900000E-01   1.00800           0
      9149 MEMB     80       SAPE     H8Y      HAL2     0.900000E-01   1.00800           0
      9150 MEMB     80       SAPE     C39      CTL2    -0.180000       12.0110           0
      9151 MEMB     80       SAPE     H9X      HAL2     0.900000E-01   1.00800           0
      9152 MEMB     80       SAPE     H9Y      HAL2     0.900000E-01   1.00800           0
      9153 MEMB     80       SAPE     C310     CTL2    -0.180000       12.0110           0
      9154 MEMB     80       SAPE     H10X     HAL2     0.900000E-01   1.00800           0
      9155 MEMB     80       SAPE     H10Y     HAL2     0.900000E-01   1.00800           0
      9156 MEMB     80       SAPE     C311     CTL2    -0.180000       12.0110           0
      9157 MEMB     80       SAPE     H11X     HAL2     0.900000E-01   1.00800           0
      9158 MEMB     80       SAPE     H11Y     HAL2     0.900000E-01   1.00800           0
      9159 MEMB     80       SAPE     C312     CTL2    -0.180000       12.0110           0
      9160 MEMB     80       SAPE     H12X     HAL2     0.900000E-01   1.00800           0
      9161 MEMB     80       SAPE     H12Y     HAL2     0.900000E-01   1.00800           0
      9162 MEMB     80       SAPE     C313     CTL2    -0.180000       12.0110           0
      9163 MEMB     80       SAPE     H13X     HAL2     0.900000E-01   1.00800           0
      9164 MEMB     80       SAPE     H13Y     HAL2     0.900000E-01   1.00800           0
      9165 MEMB     80       SAPE     C314     CTL2    -0.180000       12.0110           0
      9166 MEMB     80       SAPE     H14X     HAL2     0.900000E-01   1.00800           0
      9167 MEMB     80       SAPE     H14Y     HAL2     0.900000E-01   1.00800           0
      9168 MEMB     80       SAPE     C315     CTL2    -0.180000       12.0110           0
      9169 MEMB     80       SAPE     H15X     HAL2     0.900000E-01   1.00800           0
      9170 MEMB     80       SAPE     H15Y     HAL2     0.900000E-01   1.00800           0
      9171 MEMB     80       SAPE     C316     CTL2    -0.180000       12.0110           0
      9172 MEMB     80       SAPE     H16X     HAL2     0.900000E-01   1.00800           0
      9173 MEMB     80       SAPE     H16Y     HAL2     0.900000E-01   1.00800           0
      9174 MEMB     80       SAPE     C317     CTL2    -0.180000       12.0110           0
      9175 MEMB     80       SAPE     H17X     HAL2     0.900000E-01   1.00800           0
      9176 MEMB     80       SAPE     H17Y     HAL2     0.900000E-01   1.00800           0
      9177 MEMB     80       SAPE     C318     CTL3    -0.270000       12.0110           0
      9178 MEMB     80       SAPE     H18X     HAL3     0.900000E-01   1.00800           0
      9179 MEMB     80       SAPE     H18Y     HAL3     0.900000E-01   1.00800           0
      9180 MEMB     80       SAPE     H18Z     HAL3     0.900000E-01   1.00800           0
      9181 MEMB     81       SAPC     N        NTL     -0.600000       14.0070           0
      9182 MEMB     81       SAPC     C12      CTL2    -0.100000       12.0110           0
      9183 MEMB     81       SAPC     H12A     HL       0.250000       1.00800           0
      9184 MEMB     81       SAPC     H12B     HL       0.250000       1.00800           0
      9185 MEMB     81       SAPC     C13      CTL5    -0.350000       12.0110           0
      9186 MEMB     81       SAPC     H13A     HL       0.250000       1.00800           0
      9187 MEMB     81       SAPC     H13B     HL       0.250000       1.00800           0
      9188 MEMB     81       SAPC     H13C     HL       0.250000       1.00800           0
      9189 MEMB     81       SAPC     C14      CTL5    -0.350000       12.0110           0
      9190 MEMB     81       SAPC     H14A     HL       0.250000       1.00800           0
      9191 MEMB     81       SAPC     H14B     HL       0.250000       1.00800           0
      9192 MEMB     81       SAPC     H14C     HL       0.250000       1.00800           0
      9193 MEMB     81       SAPC     C15      CTL5    -0.350000       12.0110           0
      9194 MEMB     81       SAPC     H15A     HL       0.250000       1.00800           0
      9195 MEMB     81       SAPC     H15B     HL       0.250000       1.00800           0
      9196 MEMB     81       SAPC     H15C     HL       0.250000       1.00800           0
      9197 MEMB     81       SAPC     C11      CTL2    -0.800000E-01   12.0110           0
      9198 MEMB     81       SAPC     H11A     HAL2     0.900000E-01   1.00800           0
      9199 MEMB     81       SAPC     H11B     HAL2     0.900000E-01   1.00800           0
      9200 MEMB     81       SAPC     P        PL        1.50000       30.9740           0
      9201 MEMB     81       SAPC     O13      O2L     -0.780000       15.9994           0
      9202 MEMB     81       SAPC     O14      O2L     -0.780000       15.9994           0
      9203 MEMB     81       SAPC     O12      OSLP    -0.570000       15.9994           0
      9204 MEMB     81       SAPC     O11      OSLP    -0.570000       15.9994           0
      9205 MEMB     81       SAPC     C1       CTL2    -0.800000E-01   12.0110           0
      9206 MEMB     81       SAPC     HA       HAL2     0.900000E-01   1.00800           0
      9207 MEMB     81       SAPC     HB       HAL2     0.900000E-01   1.00800           0
      9208 MEMB     81       SAPC     C2       CTL1     0.170000       12.0110           0
      9209 MEMB     81       SAPC     HS       HAL1     0.900000E-01   1.00800           0
      9210 MEMB     81       SAPC     O21      OSL     -0.490000       15.9994           0
      9211 MEMB     81       SAPC     C21      CL       0.900000       12.0110           0
      9212 MEMB     81       SAPC     O22      OBL     -0.630000       15.9994           0
      9213 MEMB     81       SAPC     C22      CTL2    -0.220000       12.0110           0
      9214 MEMB     81       SAPC     H2R      HAL2     0.900000E-01   1.00800           0
      9215 MEMB     81       SAPC     H2S      HAL2     0.900000E-01   1.00800           0
      9216 MEMB     81       SAPC     C3       CTL2     0.800000E-01   12.0110           0
      9217 MEMB     81       SAPC     HX       HAL2     0.900000E-01   1.00800           0
      9218 MEMB     81       SAPC     HY       HAL2     0.900000E-01   1.00800           0
      9219 MEMB     81       SAPC     O31      OSL     -0.490000       15.9994           0
      9220 MEMB     81       SAPC     C31      CL       0.900000       12.0110           0
      9221 MEMB     81       SAPC     O32      OBL     -0.630000       15.9994           0
      9222 MEMB     81       SAPC     C32      CTL2    -0.220000       12.0110           0
      9223 MEMB     81       SAPC     H2X      HAL2     0.900000E-01   1.00800           0
      9224 MEMB     81       SAPC     H2Y      HAL2     0.900000E-01   1.00800           0
      9225 MEMB     81       SAPC     C23      CTL2    -0.180000       12.0110           0
      9226 MEMB     81       SAPC     H3R      HAL2     0.900000E-01   1.00800           0
      9227 MEMB     81       SAPC     H3S      HAL2     0.900000E-01   1.00800           0
      9228 MEMB     81       SAPC     C24      CTL2    -0.180000       12.0110           0
      9229 MEMB     81       SAPC     H4R      HAL2     0.900000E-01   1.00800           0
      9230 MEMB     81       SAPC     H4S      HAL2     0.900000E-01   1.00800           0
      9231 MEMB     81       SAPC     C25      CEL1    -0.150000       12.0110           0
      9232 MEMB     81       SAPC     H5R      HEL1     0.150000       1.00800           0
      9233 MEMB     81       SAPC     C26      CEL1    -0.150000       12.0110           0
      9234 MEMB     81       SAPC     H6R      HEL1     0.150000       1.00800           0
      9235 MEMB     81       SAPC     C27      CTL2    -0.180000       12.0110           0
      9236 MEMB     81       SAPC     H7R      HAL2     0.900000E-01   1.00800           0
      9237 MEMB     81       SAPC     H7S      HAL2     0.900000E-01   1.00800           0
      9238 MEMB     81       SAPC     C28      CEL1    -0.150000       12.0110           0
      9239 MEMB     81       SAPC     H8R      HEL1     0.150000       1.00800           0
      9240 MEMB     81       SAPC     C29      CEL1    -0.150000       12.0110           0
      9241 MEMB     81       SAPC     H9R      HEL1     0.150000       1.00800           0
      9242 MEMB     81       SAPC     C210     CTL2    -0.180000       12.0110           0
      9243 MEMB     81       SAPC     H10R     HAL2     0.900000E-01   1.00800           0
      9244 MEMB     81       SAPC     H10S     HAL2     0.900000E-01   1.00800           0
      9245 MEMB     81       SAPC     C211     CEL1    -0.150000       12.0110           0
      9246 MEMB     81       SAPC     H11R     HEL1     0.150000       1.00800           0
      9247 MEMB     81       SAPC     C212     CEL1    -0.150000       12.0110           0
      9248 MEMB     81       SAPC     H12R     HEL1     0.150000       1.00800           0
      9249 MEMB     81       SAPC     C213     CTL2    -0.180000       12.0110           0
      9250 MEMB     81       SAPC     H13R     HAL2     0.900000E-01   1.00800           0
      9251 MEMB     81       SAPC     H13S     HAL2     0.900000E-01   1.00800           0
      9252 MEMB     81       SAPC     C214     CEL1    -0.150000       12.0110           0
      9253 MEMB     81       SAPC     H14R     HEL1     0.150000       1.00800           0
      9254 MEMB     81       SAPC     C215     CEL1    -0.150000       12.0110           0
      9255 MEMB     81       SAPC     H15R     HEL1     0.150000       1.00800           0
      9256 MEMB     81       SAPC     C216     CTL2    -0.180000       12.0110           0
      9257 MEMB     81       SAPC     H16R     HAL2     0.900000E-01   1.00800           0
      9258 MEMB     81       SAPC     H16S     HAL2     0.900000E-01   1.00800           0
      9259 MEMB     81       SAPC     C217     CTL2    -0.180000       12.0110           0
      9260 MEMB     81       SAPC     H17R     HAL2     0.900000E-01   1.00800           0
      9261 MEMB     81       SAPC     H17S     HAL2     0.900000E-01   1.00800           0
      9262 MEMB     81       SAPC     C218     CTL2    -0.270000       12.0110           0
      9263 MEMB     81       SAPC     H18R     HAL2     0.900000E-01   1.00800           0
      9264 MEMB     81       SAPC     H18S     HAL2     0.900000E-01   1.00800           0
      9265 MEMB     81       SAPC     C219     CTL2    -0.180000       12.0110           0
      9266 MEMB     81       SAPC     H19R     HAL2     0.900000E-01   1.00800           0
      9267 MEMB     81       SAPC     H19S     HAL2     0.900000E-01   1.00800           0
      9268 MEMB     81       SAPC     C220     CTL3    -0.180000       12.0110           0
      9269 MEMB     81       SAPC     H20R     HAL3     0.900000E-01   1.00800           0
      9270 MEMB     81       SAPC     H20S     HAL3     0.900000E-01   1.00800           0
      9271 MEMB     81       SAPC     H20T     HAL3     0.900000E-01   1.00800           0
      9272 MEMB     81       SAPC     C33      CTL2    -0.180000       12.0110           0
      9273 MEMB     81       SAPC     H3X      HAL2     0.900000E-01   1.00800           0
      9274 MEMB     81       SAPC     H3Y      HAL2     0.900000E-01   1.00800           0
      9275 MEMB     81       SAPC     C34      CTL2    -0.180000       12.0110           0
      9276 MEMB     81       SAPC     H4X      HAL2     0.900000E-01   1.00800           0
      9277 MEMB     81       SAPC     H4Y      HAL2     0.900000E-01   1.00800           0
      9278 MEMB     81       SAPC     C35      CTL2    -0.180000       12.0110           0
      9279 MEMB     81       SAPC     H5X      HAL2     0.900000E-01   1.00800           0
      9280 MEMB     81       SAPC     H5Y      HAL2     0.900000E-01   1.00800           0
      9281 MEMB     81       SAPC     C36      CTL2    -0.180000       12.0110           0
      9282 MEMB     81       SAPC     H6X      HAL2     0.900000E-01   1.00800           0
      9283 MEMB     81       SAPC     H6Y      HAL2     0.900000E-01   1.00800           0
      9284 MEMB     81       SAPC     C37      CTL2    -0.180000       12.0110           0
      9285 MEMB     81       SAPC     H7X      HAL2     0.900000E-01   1.00800           0
      9286 MEMB     81       SAPC     H7Y      HAL2     0.900000E-01   1.00800           0
      9287 MEMB     81       SAPC     C38      CTL2    -0.180000       12.0110           0
      9288 MEMB     81       SAPC     H8X      HAL2     0.900000E-01   1.00800           0
      9289 MEMB     81       SAPC     H8Y      HAL2     0.900000E-01   1.00800           0
      9290 MEMB     81       SAPC     C39      CTL2    -0.180000       12.0110           0
      9291 MEMB     81       SAPC     H9X      HAL2     0.900000E-01   1.00800           0
      9292 MEMB     81       SAPC     H9Y      HAL2     0.900000E-01   1.00800           0
      9293 MEMB     81       SAPC     C310     CTL2    -0.180000       12.0110           0
      9294 MEMB     81       SAPC     H10X     HAL2     0.900000E-01   1.00800           0
      9295 MEMB     81       SAPC     H10Y     HAL2     0.900000E-01   1.00800           0
      9296 MEMB     81       SAPC     C311     CTL2    -0.180000       12.0110           0
      9297 MEMB     81       SAPC     H11X     HAL2     0.900000E-01   1.00800           0
      9298 MEMB     81       SAPC     H11Y     HAL2     0.900000E-01   1.00800           0
      9299 MEMB     81       SAPC     C312     CTL2    -0.180000       12.0110           0
      9300 MEMB     81       SAPC     H12X     HAL2     0.900000E-01   1.00800           0
      9301 MEMB     81       SAPC     H12Y     HAL2     0.900000E-01   1.00800           0
      9302 MEMB     81       SAPC     C313     CTL2    -0.180000       12.0110           0
      9303 MEMB     81       SAPC     H13X     HAL2     0.900000E-01   1.00800           0
      9304 MEMB     81       SAPC     H13Y     HAL2     0.900000E-01   1.00800           0
      9305 MEMB     81       SAPC     C314     CTL2    -0.180000       12.0110           0
      9306 MEMB     81       SAPC     H14X     HAL2     0.900000E-01   1.00800           0
      9307 MEMB     81       SAPC     H14Y     HAL2     0.900000E-01   1.00800           0
      9308 MEMB     81       SAPC     C315     CTL2    -0.180000       12.0110           0
      9309 MEMB     81       SAPC     H15X     HAL2     0.900000E-01   1.00800           0
      9310 MEMB     81       SAPC     H15Y     HAL2     0.900000E-01   1.00800           0
      9311 MEMB     81       SAPC     C316     CTL2    -0.180000       12.0110           0
      9312 MEMB     81       SAPC     H16X     HAL2     0.900000E-01   1.00800           0
      9313 MEMB     81       SAPC     H16Y     HAL2     0.900000E-01   1.00800           0
      9314 MEMB     81       SAPC     C317     CTL2    -0.180000       12.0110           0
      9315 MEMB     81       SAPC     H17X     HAL2     0.900000E-01   1.00800           0
      9316 MEMB     81       SAPC     H17Y     HAL2     0.900000E-01   1.00800           0
      9317 MEMB     81       SAPC     C318     CTL3    -0.270000       12.0110           0
      9318 MEMB     81       SAPC     H18X     HAL3     0.900000E-01   1.00800           0
      9319 MEMB     81       SAPC     H18Y     HAL3     0.900000E-01   1.00800           0
      9320 MEMB     81       SAPC     H18Z     HAL3     0.900000E-01   1.00800           0
      9321 MEMB     82       SAPS     N        NH3L    -0.300000       14.0070           0
      9322 MEMB     82       SAPS     HN1      HCL      0.330000       1.00800           0
      9323 MEMB     82       SAPS     HN2      HCL      0.330000       1.00800           0
      9324 MEMB     82       SAPS     HN3      HCL      0.330000       1.00800           0
      9325 MEMB     82       SAPS     C12      CTL1     0.210000       12.0110           0
      9326 MEMB     82       SAPS     H12A     HBL      0.100000       1.00800           0
      9327 MEMB     82       SAPS     C13      CCL      0.340000       12.0110           0
      9328 MEMB     82       SAPS     O13A     OCL     -0.670000       15.9994           0
      9329 MEMB     82       SAPS     O13B     OCL     -0.670000       15.9994           0
      9330 MEMB     82       SAPS     C11      CTL2    -0.800000E-01   12.0110           0
      9331 MEMB     82       SAPS     H11A     HAL2     0.900000E-01   1.00800           0
      9332 MEMB     82       SAPS     H11B     HAL2     0.900000E-01   1.00800           0
      9333 MEMB     82       SAPS     P        PL        1.50000       30.9740           0
      9334 MEMB     82       SAPS     O13      O2L     -0.780000       15.9994           0
      9335 MEMB     82       SAPS     O14      O2L     -0.780000       15.9994           0
      9336 MEMB     82       SAPS     O12      OSLP    -0.570000       15.9994           0
      9337 MEMB     82       SAPS     O11      OSLP    -0.570000       15.9994           0
      9338 MEMB     82       SAPS     C1       CTL2    -0.800000E-01   12.0110           0
      9339 MEMB     82       SAPS     HA       HAL2     0.900000E-01   1.00800           0
      9340 MEMB     82       SAPS     HB       HAL2     0.900000E-01   1.00800           0
      9341 MEMB     82       SAPS     C2       CTL1     0.170000       12.0110           0
      9342 MEMB     82       SAPS     HS       HAL1     0.900000E-01   1.00800           0
      9343 MEMB     82       SAPS     O21      OSL     -0.490000       15.9994           0
      9344 MEMB     82       SAPS     C21      CL       0.900000       12.0110           0
      9345 MEMB     82       SAPS     O22      OBL     -0.630000       15.9994           0
      9346 MEMB     82       SAPS     C22      CTL2    -0.220000       12.0110           0
      9347 MEMB     82       SAPS     H2R      HAL2     0.900000E-01   1.00800           0
      9348 MEMB     82       SAPS     H2S      HAL2     0.900000E-01   1.00800           0
      9349 MEMB     82       SAPS     C3       CTL2     0.800000E-01   12.0110           0
      9350 MEMB     82       SAPS     HX       HAL2     0.900000E-01   1.00800           0
      9351 MEMB     82       SAPS     HY       HAL2     0.900000E-01   1.00800           0
      9352 MEMB     82       SAPS     O31      OSL     -0.490000       15.9994           0
      9353 MEMB     82       SAPS     C31      CL       0.900000       12.0110           0
      9354 MEMB     82       SAPS     O32      OBL     -0.630000       15.9994           0
      9355 MEMB     82       SAPS     C32      CTL2    -0.220000       12.0110           0
      9356 MEMB     82       SAPS     H2X      HAL2     0.900000E-01   1.00800           0
      9357 MEMB     82       SAPS     H2Y      HAL2     0.900000E-01   1.00800           0
      9358 MEMB     82       SAPS     C23      CTL2    -0.180000       12.0110           0
      9359 MEMB     82       SAPS     H3R      HAL2     0.900000E-01   1.00800           0
      9360 MEMB     82       SAPS     H3S      HAL2     0.900000E-01   1.00800           0
      9361 MEMB     82       SAPS     C24      CTL2    -0.180000       12.0110           0
      9362 MEMB     82       SAPS     H4R      HAL2     0.900000E-01   1.00800           0
      9363 MEMB     82       SAPS     H4S      HAL2     0.900000E-01   1.00800           0
      9364 MEMB     82       SAPS     C25      CEL1    -0.150000       12.0110           0
      9365 MEMB     82       SAPS     H5R      HEL1     0.150000       1.00800           0
      9366 MEMB     82       SAPS     C26      CEL1    -0.150000       12.0110           0
      9367 MEMB     82       SAPS     H6R      HEL1     0.150000       1.00800           0
      9368 MEMB     82       SAPS     C27      CTL2    -0.180000       12.0110           0
      9369 MEMB     82       SAPS     H7R      HAL2     0.900000E-01   1.00800           0
      9370 MEMB     82       SAPS     H7S      HAL2     0.900000E-01   1.00800           0
      9371 MEMB     82       SAPS     C28      CEL1    -0.150000       12.0110           0
      9372 MEMB     82       SAPS     H8R      HEL1     0.150000       1.00800           0
      9373 MEMB     82       SAPS     C29      CEL1    -0.150000       12.0110           0
      9374 MEMB     82       SAPS     H9R      HEL1     0.150000       1.00800           0
      9375 MEMB     82       SAPS     C210     CTL2    -0.180000       12.0110           0
      9376 MEMB     82       SAPS     H10R     HAL2     0.900000E-01   1.00800           0
      9377 MEMB     82       SAPS     H10S     HAL2     0.900000E-01   1.00800           0
      9378 MEMB     82       SAPS     C211     CEL1    -0.150000       12.0110           0
      9379 MEMB     82       SAPS     H11R     HEL1     0.150000       1.00800           0
      9380 MEMB     82       SAPS     C212     CEL1    -0.150000       12.0110           0
      9381 MEMB     82       SAPS     H12R     HEL1     0.150000       1.00800           0
      9382 MEMB     82       SAPS     C213     CTL2    -0.180000       12.0110           0
      9383 MEMB     82       SAPS     H13R     HAL2     0.900000E-01   1.00800           0
      9384 MEMB     82       SAPS     H13S     HAL2     0.900000E-01   1.00800           0
      9385 MEMB     82       SAPS     C214     CEL1    -0.150000       12.0110           0
      9386 MEMB     82       SAPS     H14R     HEL1     0.150000       1.00800           0
      9387 MEMB     82       SAPS     C215     CEL1    -0.150000       12.0110           0
      9388 MEMB     82       SAPS     H15R     HEL1     0.150000       1.00800           0
      9389 MEMB     82       SAPS     C216     CTL2    -0.180000       12.0110           0
      9390 MEMB     82       SAPS     H16R     HAL2     0.900000E-01   1.00800           0
      9391 MEMB     82       SAPS     H16S     HAL2     0.900000E-01   1.00800           0
      9392 MEMB     82       SAPS     C217     CTL2    -0.180000       12.0110           0
      9393 MEMB     82       SAPS     H17R     HAL2     0.900000E-01   1.00800           0
      9394 MEMB     82       SAPS     H17S     HAL2     0.900000E-01   1.00800           0
      9395 MEMB     82       SAPS     C218     CTL2    -0.180000       12.0110           0
      9396 MEMB     82       SAPS     H18R     HAL2     0.900000E-01   1.00800           0
      9397 MEMB     82       SAPS     H18S     HAL2     0.900000E-01   1.00800           0
      9398 MEMB     82       SAPS     C219     CTL2    -0.180000       12.0110           0
      9399 MEMB     82       SAPS     H19R     HAL2     0.900000E-01   1.00800           0
      9400 MEMB     82       SAPS     H19S     HAL2     0.900000E-01   1.00800           0
      9401 MEMB     82       SAPS     C220     CTL3    -0.270000       12.0110           0
      9402 MEMB     82       SAPS     H20R     HAL3     0.900000E-01   1.00800           0
      9403 MEMB     82       SAPS     H20S     HAL3     0.900000E-01   1.00800           0
      9404 MEMB     82       SAPS     H20T     HAL3     0.900000E-01   1.00800           0
      9405 MEMB     82       SAPS     C33      CTL2    -0.180000       12.0110           0
      9406 MEMB     82       SAPS     H3X      HAL2     0.900000E-01   1.00800           0
      9407 MEMB     82       SAPS     H3Y      HAL2     0.900000E-01   1.00800           0
      9408 MEMB     82       SAPS     C34      CTL2    -0.180000       12.0110           0
      9409 MEMB     82       SAPS     H4X      HAL2     0.900000E-01   1.00800           0
      9410 MEMB     82       SAPS     H4Y      HAL2     0.900000E-01   1.00800           0
      9411 MEMB     82       SAPS     C35      CTL2    -0.180000       12.0110           0
      9412 MEMB     82       SAPS     H5X      HAL2     0.900000E-01   1.00800           0
      9413 MEMB     82       SAPS     H5Y      HAL2     0.900000E-01   1.00800           0
      9414 MEMB     82       SAPS     C36      CTL2    -0.180000       12.0110           0
      9415 MEMB     82       SAPS     H6X      HAL2     0.900000E-01   1.00800           0
      9416 MEMB     82       SAPS     H6Y      HAL2     0.900000E-01   1.00800           0
      9417 MEMB     82       SAPS     C37      CTL2    -0.180000       12.0110           0
      9418 MEMB     82       SAPS     H7X      HAL2     0.900000E-01   1.00800           0
      9419 MEMB     82       SAPS     H7Y      HAL2     0.900000E-01   1.00800           0
      9420 MEMB     82       SAPS     C38      CTL2    -0.180000       12.0110           0
      9421 MEMB     82       SAPS     H8X      HAL2     0.900000E-01   1.00800           0
      9422 MEMB     82       SAPS     H8Y      HAL2     0.900000E-01   1.00800           0
      9423 MEMB     82       SAPS     C39      CTL2    -0.180000       12.0110           0
      9424 MEMB     82       SAPS     H9X      HAL2     0.900000E-01   1.00800           0
      9425 MEMB     82       SAPS     H9Y      HAL2     0.900000E-01   1.00800           0
      9426 MEMB     82       SAPS     C310     CTL2    -0.180000       12.0110           0
      9427 MEMB     82       SAPS     H10X     HAL2     0.900000E-01   1.00800           0
      9428 MEMB     82       SAPS     H10Y     HAL2     0.900000E-01   1.00800           0
      9429 MEMB     82       SAPS     C311     CTL2    -0.180000       12.0110           0
      9430 MEMB     82       SAPS     H11X     HAL2     0.900000E-01   1.00800           0
      9431 MEMB     82       SAPS     H11Y     HAL2     0.900000E-01   1.00800           0
      9432 MEMB     82       SAPS     C312     CTL2    -0.180000       12.0110           0
      9433 MEMB     82       SAPS     H12X     HAL2     0.900000E-01   1.00800           0
      9434 MEMB     82       SAPS     H12Y     HAL2     0.900000E-01   1.00800           0
      9435 MEMB     82       SAPS     C313     CTL2    -0.180000       12.0110           0
      9436 MEMB     82       SAPS     H13X     HAL2     0.900000E-01   1.00800           0
      9437 MEMB     82       SAPS     H13Y     HAL2     0.900000E-01   1.00800           0
      9438 MEMB     82       SAPS     C314     CTL2    -0.180000       12.0110           0
      9439 MEMB     82       SAPS     H14X     HAL2     0.900000E-01   1.00800           0
      9440 MEMB     82       SAPS     H14Y     HAL2     0.900000E-01   1.00800           0
      9441 MEMB     82       SAPS     C315     CTL2    -0.180000       12.0110           0
      9442 MEMB     82       SAPS     H15X     HAL2     0.900000E-01   1.00800           0
      9443 MEMB     82       SAPS     H15Y     HAL2     0.900000E-01   1.00800           0
      9444 MEMB     82       SAPS     C316     CTL2    -0.180000       12.0110           0
      9445 MEMB     82       SAPS     H16X     HAL2     0.900000E-01   1.00800           0
      9446 MEMB     82       SAPS     H16Y     HAL2     0.900000E-01   1.00800           0
      9447 MEMB     82       SAPS     C317     CTL2    -0.180000       12.0110           0
      9448 MEMB     82       SAPS     H17X     HAL2     0.900000E-01   1.00800           0
      9449 MEMB     82       SAPS     H17Y     HAL2     0.900000E-01   1.00800           0
      9450 MEMB     82       SAPS     C318     CTL3    -0.270000       12.0110           0
      9451 MEMB     82       SAPS     H18X     HAL3     0.900000E-01   1.00800           0
      9452 MEMB     82       SAPS     H18Y     HAL3     0.900000E-01   1.00800           0
      9453 MEMB     82       SAPS     H18Z     HAL3     0.900000E-01   1.00800           0
      9454 MEMB     83       CHL1     C3       CRL1     0.140000       12.0110           0
      9455 MEMB     83       CHL1     H3       HGA1     0.900000E-01   1.00800           0
      9456 MEMB     83       CHL1     O3       OHL     -0.660000       15.9994           0
      9457 MEMB     83       CHL1     H3'      HOL      0.430000       1.00800           0
      9458 MEMB     83       CHL1     C4       CRL2    -0.180000       12.0110           0
      9459 MEMB     83       CHL1     H4A      HGA2     0.900000E-01   1.00800           0
      9460 MEMB     83       CHL1     H4B      HGA2     0.900000E-01   1.00800           0
      9461 MEMB     83       CHL1     C5       CEL1      0.00000       12.0110           0
      9462 MEMB     83       CHL1     C6       CEL1    -0.150000       12.0110           0
      9463 MEMB     83       CHL1     H6       HEL1     0.150000       1.00800           0
      9464 MEMB     83       CHL1     C7       CRL2    -0.180000       12.0110           0
      9465 MEMB     83       CHL1     H7A      HGA2     0.900000E-01   1.00800           0
      9466 MEMB     83       CHL1     H7B      HGA2     0.900000E-01   1.00800           0
      9467 MEMB     83       CHL1     C8       CRL1    -0.900000E-01   12.0110           0
      9468 MEMB     83       CHL1     H8       HGA1     0.900000E-01   1.00800           0
      9469 MEMB     83       CHL1     C14      CRL1    -0.900000E-01   12.0110           0
      9470 MEMB     83       CHL1     H14      HGA1     0.900000E-01   1.00800           0
      9471 MEMB     83       CHL1     C15      CRL2    -0.180000       12.0110           0
      9472 MEMB     83       CHL1     H15A     HGA2     0.900000E-01   1.00800           0
      9473 MEMB     83       CHL1     H15B     HGA2     0.900000E-01   1.00800           0
      9474 MEMB     83       CHL1     C16      CRL2    -0.180000       12.0110           0
      9475 MEMB     83       CHL1     H16A     HGA2     0.900000E-01   1.00800           0
      9476 MEMB     83       CHL1     H16B     HGA2     0.900000E-01   1.00800           0
      9477 MEMB     83       CHL1     C17      CRL1    -0.900000E-01   12.0110           0
      9478 MEMB     83       CHL1     H17      HGA1     0.900000E-01   1.00800           0
      9479 MEMB     83       CHL1     C13      CRL1      0.00000       12.0110           0
      9480 MEMB     83       CHL1     C18      CTL3    -0.270000       12.0110           0
      9481 MEMB     83       CHL1     H18A     HAL3     0.900000E-01   1.00800           0
      9482 MEMB     83       CHL1     H18B     HAL3     0.900000E-01   1.00800           0
      9483 MEMB     83       CHL1     H18C     HAL3     0.900000E-01   1.00800           0
      9484 MEMB     83       CHL1     C12      CRL2    -0.180000       12.0110           0
      9485 MEMB     83       CHL1     H12A     HGA2     0.900000E-01   1.00800           0
      9486 MEMB     83       CHL1     H12B     HGA2     0.900000E-01   1.00800           0
      9487 MEMB     83       CHL1     C11      CRL2    -0.180000       12.0110           0
      9488 MEMB     83       CHL1     H11A     HGA2     0.900000E-01   1.00800           0
      9489 MEMB     83       CHL1     H11B     HGA2     0.900000E-01   1.00800           0
      9490 MEMB     83       CHL1     C9       CRL1    -0.900000E-01   12.0110           0
      9491 MEMB     83       CHL1     H9       HGA1     0.900000E-01   1.00800           0
      9492 MEMB     83       CHL1     C10      CRL1      0.00000       12.0110           0
      9493 MEMB     83       CHL1     C19      CTL3    -0.270000       12.0110           0
      9494 MEMB     83       CHL1     H19A     HAL3     0.900000E-01   1.00800           0
      9495 MEMB     83       CHL1     H19B     HAL3     0.900000E-01   1.00800           0
      9496 MEMB     83       CHL1     H19C     HAL3     0.900000E-01   1.00800           0
      9497 MEMB     83       CHL1     C1       CRL2    -0.180000       12.0110           0
      9498 MEMB     83       CHL1     H1A      HGA2     0.900000E-01   1.00800           0
      9499 MEMB     83       CHL1     H1B      HGA2     0.900000E-01   1.00800           0
      9500 MEMB     83       CHL1     C2       CRL2    -0.180000       12.0110           0
      9501 MEMB     83       CHL1     H2A      HGA2     0.900000E-01   1.00800           0
      9502 MEMB     83       CHL1     H2B      HGA2     0.900000E-01   1.00800           0
      9503 MEMB     83       CHL1     C20      CTL1    -0.900000E-01   12.0110           0
      9504 MEMB     83       CHL1     H20      HAL1     0.900000E-01   1.00800           0
      9505 MEMB     83       CHL1     C21      CTL3    -0.270000       12.0110           0
      9506 MEMB     83       CHL1     H21A     HAL3     0.900000E-01   1.00800           0
      9507 MEMB     83       CHL1     H21B     HAL3     0.900000E-01   1.00800           0
      9508 MEMB     83       CHL1     H21C     HAL3     0.900000E-01   1.00800           0
      9509 MEMB     83       CHL1     C22      CTL2    -0.180000       12.0110           0
      9510 MEMB     83       CHL1     H22A     HAL2     0.900000E-01   1.00800           0
      9511 MEMB     83       CHL1     H22B     HAL2     0.900000E-01   1.00800           0
      9512 MEMB     83       CHL1     C23      CTL2    -0.180000       12.0110           0
      9513 MEMB     83       CHL1     H23A     HAL2     0.900000E-01   1.00800           0
      9514 MEMB     83       CHL1     H23B     HAL2     0.900000E-01   1.00800           0
      9515 MEMB     83       CHL1     C24      CTL2    -0.180000       12.0110           0
      9516 MEMB     83       CHL1     H24A     HAL2     0.900000E-01   1.00800           0
      9517 MEMB     83       CHL1     H24B     HAL2     0.900000E-01   1.00800           0
      9518 MEMB     83       CHL1     C25      CTL1    -0.900000E-01   12.0110           0
      9519 MEMB     83       CHL1     H25      HAL1     0.900000E-01   1.00800           0
      9520 MEMB     83       CHL1     C26      CTL3    -0.270000       12.0110           0
      9521 MEMB     83       CHL1     H26A     HAL3     0.900000E-01   1.00800           0
      9522 MEMB     83       CHL1     H26B     HAL3     0.900000E-01   1.00800           0
      9523 MEMB     83       CHL1     H26C     HAL3     0.900000E-01   1.00800           0
      9524 MEMB     83       CHL1     C27      CTL3    -0.270000       12.0110           0
      9525 MEMB     83       CHL1     H27A     HAL3     0.900000E-01   1.00800           0
      9526 MEMB     83       CHL1     H27B     HAL3     0.900000E-01   1.00800           0
      9527 MEMB     83       CHL1     H27C     HAL3     0.900000E-01   1.00800           0
      9528 MEMB     84       OSM      N        NTL     -0.600000       14.0070           0
      9529 MEMB     84       OSM      C15      CTL5    -0.350000       12.0110           0
      9530 MEMB     84       OSM      H15A     HL       0.250000       1.00800           0
      9531 MEMB     84       OSM      H15B     HL       0.250000       1.00800           0
      9532 MEMB     84       OSM      H15C     HL       0.250000       1.00800           0
      9533 MEMB     84       OSM      C14      CTL5    -0.350000       12.0110           0
      9534 MEMB     84       OSM      H14A     HL       0.250000       1.00800           0
      9535 MEMB     84       OSM      H14B     HL       0.250000       1.00800           0
      9536 MEMB     84       OSM      H14C     HL       0.250000       1.00800           0
      9537 MEMB     84       OSM      C13      CTL5    -0.350000       12.0110           0
      9538 MEMB     84       OSM      H13A     HL       0.250000       1.00800           0
      9539 MEMB     84       OSM      H13B     HL       0.250000       1.00800           0
      9540 MEMB     84       OSM      H13C     HL       0.250000       1.00800           0
      9541 MEMB     84       OSM      C12      CTL2    -0.100000       12.0110           0
      9542 MEMB     84       OSM      H12A     HL       0.250000       1.00800           0
      9543 MEMB     84       OSM      H12B     HL       0.250000       1.00800           0
      9544 MEMB     84       OSM      C11      CTL2    -0.800000E-01   12.0110           0
      9545 MEMB     84       OSM      H11A     HAL2     0.900000E-01   1.00800           0
      9546 MEMB     84       OSM      H11B     HAL2     0.900000E-01   1.00800           0
      9547 MEMB     84       OSM      P        PL        1.50000       30.9740           0
      9548 MEMB     84       OSM      O13      O2L     -0.780000       15.9994           0
      9549 MEMB     84       OSM      O14      O2L     -0.780000       15.9994           0
      9550 MEMB     84       OSM      O11      OSLP    -0.570000       15.9994           0
      9551 MEMB     84       OSM      O12      OSLP    -0.570000       15.9994           0
      9552 MEMB     84       OSM      C1S      CTL2    -0.800000E-01   12.0110           0
      9553 MEMB     84       OSM      H1S      HAL2     0.900000E-01   1.00800           0
      9554 MEMB     84       OSM      H1T      HAL2     0.900000E-01   1.00800           0
      9555 MEMB     84       OSM      NF       NHL     -0.700000       14.0070           0
      9556 MEMB     84       OSM      HNF      H        0.350000       1.00800           0
      9557 MEMB     84       OSM      C2S      CTL1     0.300000       12.0110           0
      9558 MEMB     84       OSM      H2S      HAL1     0.500000E-01   1.00800           0
      9559 MEMB     84       OSM      C3S      CTO1     0.500000       12.0110           0
      9560 MEMB     84       OSM      H3S      HAL1    -0.110000       1.00800           0
      9561 MEMB     84       OSM      O3       OHL     -0.690000       15.9994           0
      9562 MEMB     84       OSM      HO3      HOL      0.300000       1.00800           0
      9563 MEMB     84       OSM      C4S      CEL3    -0.150000       12.0110           0
      9564 MEMB     84       OSM      H4S      HEL1     0.150000       1.00800           0
      9565 MEMB     84       OSM      C5S      CEL3    -0.150000       12.0110           0
      9566 MEMB     84       OSM      H5S      HEL1     0.150000       1.00800           0
      9567 MEMB     84       OSM      C6S      CTL2    -0.180000       12.0110           0
      9568 MEMB     84       OSM      H6S      HAL2     0.900000E-01   1.00800           0
      9569 MEMB     84       OSM      H6T      HAL2     0.900000E-01   1.00800           0
      9570 MEMB     84       OSM      C7S      CTL2    -0.180000       12.0110           0
      9571 MEMB     84       OSM      H7S      HAL2     0.900000E-01   1.00800           0
      9572 MEMB     84       OSM      H7T      HAL2     0.900000E-01   1.00800           0
      9573 MEMB     84       OSM      C8S      CTL2    -0.180000       12.0110           0
      9574 MEMB     84       OSM      H8S      HAL2     0.900000E-01   1.00800           0
      9575 MEMB     84       OSM      H8T      HAL2     0.900000E-01   1.00800           0
      9576 MEMB     84       OSM      C9S      CTL2    -0.180000       12.0110           0
      9577 MEMB     84       OSM      H9S      HAL2     0.900000E-01   1.00800           0
      9578 MEMB     84       OSM      H9T      HAL2     0.900000E-01   1.00800           0
      9579 MEMB     84       OSM      C10S     CTL2    -0.180000       12.0110           0
      9580 MEMB     84       OSM      H10S     HAL2     0.900000E-01   1.00800           0
      9581 MEMB     84       OSM      H10T     HAL2     0.900000E-01   1.00800           0
      9582 MEMB     84       OSM      C11S     CTL2    -0.180000       12.0110           0
      9583 MEMB     84       OSM      H11S     HAL2     0.900000E-01   1.00800           0
      9584 MEMB     84       OSM      H11T     HAL2     0.900000E-01   1.00800           0
      9585 MEMB     84       OSM      C12S     CTL2    -0.180000       12.0110           0
      9586 MEMB     84       OSM      H12S     HAL2     0.900000E-01   1.00800           0
      9587 MEMB     84       OSM      H12T     HAL2     0.900000E-01   1.00800           0
      9588 MEMB     84       OSM      C13S     CTL2    -0.180000       12.0110           0
      9589 MEMB     84       OSM      H13S     HAL2     0.900000E-01   1.00800           0
      9590 MEMB     84       OSM      H13T     HAL2     0.900000E-01   1.00800           0
      9591 MEMB     84       OSM      C14S     CTL2    -0.180000       12.0110           0
      9592 MEMB     84       OSM      H14S     HAL2     0.900000E-01   1.00800           0
      9593 MEMB     84       OSM      H14T     HAL2     0.900000E-01   1.00800           0
      9594 MEMB     84       OSM      C15S     CTL2    -0.180000       12.0110           0
      9595 MEMB     84       OSM      H15S     HAL2     0.900000E-01   1.00800           0
      9596 MEMB     84       OSM      H15T     HAL2     0.900000E-01   1.00800           0
      9597 MEMB     84       OSM      C16S     CTL2    -0.180000       12.0110           0
      9598 MEMB     84       OSM      H16S     HAL2     0.900000E-01   1.00800           0
      9599 MEMB     84       OSM      H16T     HAL2     0.900000E-01   1.00800           0
      9600 MEMB     84       OSM      C17S     CTL2    -0.180000       12.0110           0
      9601 MEMB     84       OSM      H17S     HAL2     0.900000E-01   1.00800           0
      9602 MEMB     84       OSM      H17T     HAL2     0.900000E-01   1.00800           0
      9603 MEMB     84       OSM      C18S     CTL3    -0.270000       12.0110           0
      9604 MEMB     84       OSM      H18S     HAL3     0.900000E-01   1.00800           0
      9605 MEMB     84       OSM      H18T     HAL3     0.900000E-01   1.00800           0
      9606 MEMB     84       OSM      H18U     HAL3     0.900000E-01   1.00800           0
      9607 MEMB     84       OSM      C1F      C        0.550000       12.0110           0
      9608 MEMB     84       OSM      OF       O       -0.600000       15.9994           0
      9609 MEMB     84       OSM      C2F      CTL2    -0.700000E-01   12.0110           0
      9610 MEMB     84       OSM      H2F      HAL2     0.600000E-01   1.00800           0
      9611 MEMB     84       OSM      H2G      HAL2     0.600000E-01   1.00800           0
      9612 MEMB     84       OSM      C3F      CTL2    -0.180000       12.0110           0
      9613 MEMB     84       OSM      H3F      HAL2     0.900000E-01   1.00800           0
      9614 MEMB     84       OSM      H3G      HAL2     0.900000E-01   1.00800           0
      9615 MEMB     84       OSM      C4F      CTL2    -0.180000       12.0110           0
      9616 MEMB     84       OSM      H4F      HAL2     0.900000E-01   1.00800           0
      9617 MEMB     84       OSM      H4G      HAL2     0.900000E-01   1.00800           0
      9618 MEMB     84       OSM      C5F      CTL2    -0.180000       12.0110           0
      9619 MEMB     84       OSM      H5F      HAL2     0.900000E-01   1.00800           0
      9620 MEMB     84       OSM      H5G      HAL2     0.900000E-01   1.00800           0
      9621 MEMB     84       OSM      C6F      CTL2    -0.180000       12.0110           0
      9622 MEMB     84       OSM      H6F      HAL2     0.900000E-01   1.00800           0
      9623 MEMB     84       OSM      H6G      HAL2     0.900000E-01   1.00800           0
      9624 MEMB     84       OSM      C7F      CTL2    -0.180000       12.0110           0
      9625 MEMB     84       OSM      H7F      HAL2     0.900000E-01   1.00800           0
      9626 MEMB     84       OSM      H7G      HAL2     0.900000E-01   1.00800           0
      9627 MEMB     84       OSM      C8F      CTL2    -0.180000       12.0110           0
      9628 MEMB     84       OSM      H8F      HAL2     0.900000E-01   1.00800           0
      9629 MEMB     84       OSM      H8G      HAL2     0.900000E-01   1.00800           0
      9630 MEMB     84       OSM      C9F      CEL1    -0.150000       12.0110           0
      9631 MEMB     84       OSM      H9F      HEL1     0.150000       1.00800           0
      9632 MEMB     84       OSM      C10F     CEL1    -0.150000       12.0110           0
      9633 MEMB     84       OSM      H10F     HEL1     0.150000       1.00800           0
      9634 MEMB     84       OSM      C11F     CTL2    -0.180000       12.0110           0
      9635 MEMB     84       OSM      H11F     HAL2     0.900000E-01   1.00800           0
      9636 MEMB     84       OSM      H11G     HAL2     0.900000E-01   1.00800           0
      9637 MEMB     84       OSM      C12F     CTL2    -0.180000       12.0110           0
      9638 MEMB     84       OSM      H12F     HAL2     0.900000E-01   1.00800           0
      9639 MEMB     84       OSM      H12G     HAL2     0.900000E-01   1.00800           0
      9640 MEMB     84       OSM      C13F     CTL2    -0.180000       12.0110           0
      9641 MEMB     84       OSM      H13F     HAL2     0.900000E-01   1.00800           0
      9642 MEMB     84       OSM      H13G     HAL2     0.900000E-01   1.00800           0
      9643 MEMB     84       OSM      C14F     CTL2    -0.180000       12.0110           0
      9644 MEMB     84       OSM      H14F     HAL2     0.900000E-01   1.00800           0
      9645 MEMB     84       OSM      H14G     HAL2     0.900000E-01   1.00800           0
      9646 MEMB     84       OSM      C15F     CTL2    -0.180000       12.0110           0
      9647 MEMB     84       OSM      H15F     HAL2     0.900000E-01   1.00800           0
      9648 MEMB     84       OSM      H15G     HAL2     0.900000E-01   1.00800           0
      9649 MEMB     84       OSM      C16F     CTL2    -0.180000       12.0110           0
      9650 MEMB     84       OSM      H16F     HAL2     0.900000E-01   1.00800           0
      9651 MEMB     84       OSM      H16G     HAL2     0.900000E-01   1.00800           0
      9652 MEMB     84       OSM      C17F     CTL2    -0.180000       12.0110           0
      9653 MEMB     84       OSM      H17F     HAL2     0.900000E-01   1.00800           0
      9654 MEMB     84       OSM      H17G     HAL2     0.900000E-01   1.00800           0
      9655 MEMB     84       OSM      C18F     CTL3    -0.270000       12.0110           0
      9656 MEMB     84       OSM      H18F     HAL3     0.900000E-01   1.00800           0
      9657 MEMB     84       OSM      H18G     HAL3     0.900000E-01   1.00800           0
      9658 MEMB     84       OSM      H18H     HAL3     0.900000E-01   1.00800           0
      9659 MEMB     85       SAPS     N        NH3L    -0.300000       14.0070           0
      9660 MEMB     85       SAPS     HN1      HCL      0.330000       1.00800           0
      9661 MEMB     85       SAPS     HN2      HCL      0.330000       1.00800           0
      9662 MEMB     85       SAPS     HN3      HCL      0.330000       1.00800           0
      9663 MEMB     85       SAPS     C12      CTL1     0.210000       12.0110           0
      9664 MEMB     85       SAPS     H12A     HBL      0.100000       1.00800           0
      9665 MEMB     85       SAPS     C13      CCL      0.340000       12.0110           0
      9666 MEMB     85       SAPS     O13A     OCL     -0.670000       15.9994           0
      9667 MEMB     85       SAPS     O13B     OCL     -0.670000       15.9994           0
      9668 MEMB     85       SAPS     C11      CTL2    -0.800000E-01   12.0110           0
      9669 MEMB     85       SAPS     H11A     HAL2     0.900000E-01   1.00800           0
      9670 MEMB     85       SAPS     H11B     HAL2     0.900000E-01   1.00800           0
      9671 MEMB     85       SAPS     P        PL        1.50000       30.9740           0
      9672 MEMB     85       SAPS     O13      O2L     -0.780000       15.9994           0
      9673 MEMB     85       SAPS     O14      O2L     -0.780000       15.9994           0
      9674 MEMB     85       SAPS     O12      OSLP    -0.570000       15.9994           0
      9675 MEMB     85       SAPS     O11      OSLP    -0.570000       15.9994           0
      9676 MEMB     85       SAPS     C1       CTL2    -0.800000E-01   12.0110           0
      9677 MEMB     85       SAPS     HA       HAL2     0.900000E-01   1.00800           0
      9678 MEMB     85       SAPS     HB       HAL2     0.900000E-01   1.00800           0
      9679 MEMB     85       SAPS     C2       CTL1     0.170000       12.0110           0
      9680 MEMB     85       SAPS     HS       HAL1     0.900000E-01   1.00800           0
      9681 MEMB     85       SAPS     O21      OSL     -0.490000       15.9994           0
      9682 MEMB     85       SAPS     C21      CL       0.900000       12.0110           0
      9683 MEMB     85       SAPS     O22      OBL     -0.630000       15.9994           0
      9684 MEMB     85       SAPS     C22      CTL2    -0.220000       12.0110           0
      9685 MEMB     85       SAPS     H2R      HAL2     0.900000E-01   1.00800           0
      9686 MEMB     85       SAPS     H2S      HAL2     0.900000E-01   1.00800           0
      9687 MEMB     85       SAPS     C3       CTL2     0.800000E-01   12.0110           0
      9688 MEMB     85       SAPS     HX       HAL2     0.900000E-01   1.00800           0
      9689 MEMB     85       SAPS     HY       HAL2     0.900000E-01   1.00800           0
      9690 MEMB     85       SAPS     O31      OSL     -0.490000       15.9994           0
      9691 MEMB     85       SAPS     C31      CL       0.900000       12.0110           0
      9692 MEMB     85       SAPS     O32      OBL     -0.630000       15.9994           0
      9693 MEMB     85       SAPS     C32      CTL2    -0.220000       12.0110           0
      9694 MEMB     85       SAPS     H2X      HAL2     0.900000E-01   1.00800           0
      9695 MEMB     85       SAPS     H2Y      HAL2     0.900000E-01   1.00800           0
      9696 MEMB     85       SAPS     C23      CTL2    -0.180000       12.0110           0
      9697 MEMB     85       SAPS     H3R      HAL2     0.900000E-01   1.00800           0
      9698 MEMB     85       SAPS     H3S      HAL2     0.900000E-01   1.00800           0
      9699 MEMB     85       SAPS     C24      CTL2    -0.180000       12.0110           0
      9700 MEMB     85       SAPS     H4R      HAL2     0.900000E-01   1.00800           0
      9701 MEMB     85       SAPS     H4S      HAL2     0.900000E-01   1.00800           0
      9702 MEMB     85       SAPS     C25      CEL1    -0.150000       12.0110           0
      9703 MEMB     85       SAPS     H5R      HEL1     0.150000       1.00800           0
      9704 MEMB     85       SAPS     C26      CEL1    -0.150000       12.0110           0
      9705 MEMB     85       SAPS     H6R      HEL1     0.150000       1.00800           0
      9706 MEMB     85       SAPS     C27      CTL2    -0.180000       12.0110           0
      9707 MEMB     85       SAPS     H7R      HAL2     0.900000E-01   1.00800           0
      9708 MEMB     85       SAPS     H7S      HAL2     0.900000E-01   1.00800           0
      9709 MEMB     85       SAPS     C28      CEL1    -0.150000       12.0110           0
      9710 MEMB     85       SAPS     H8R      HEL1     0.150000       1.00800           0
      9711 MEMB     85       SAPS     C29      CEL1    -0.150000       12.0110           0
      9712 MEMB     85       SAPS     H9R      HEL1     0.150000       1.00800           0
      9713 MEMB     85       SAPS     C210     CTL2    -0.180000       12.0110           0
      9714 MEMB     85       SAPS     H10R     HAL2     0.900000E-01   1.00800           0
      9715 MEMB     85       SAPS     H10S     HAL2     0.900000E-01   1.00800           0
      9716 MEMB     85       SAPS     C211     CEL1    -0.150000       12.0110           0
      9717 MEMB     85       SAPS     H11R     HEL1     0.150000       1.00800           0
      9718 MEMB     85       SAPS     C212     CEL1    -0.150000       12.0110           0
      9719 MEMB     85       SAPS     H12R     HEL1     0.150000       1.00800           0
      9720 MEMB     85       SAPS     C213     CTL2    -0.180000       12.0110           0
      9721 MEMB     85       SAPS     H13R     HAL2     0.900000E-01   1.00800           0
      9722 MEMB     85       SAPS     H13S     HAL2     0.900000E-01   1.00800           0
      9723 MEMB     85       SAPS     C214     CEL1    -0.150000       12.0110           0
      9724 MEMB     85       SAPS     H14R     HEL1     0.150000       1.00800           0
      9725 MEMB     85       SAPS     C215     CEL1    -0.150000       12.0110           0
      9726 MEMB     85       SAPS     H15R     HEL1     0.150000       1.00800           0
      9727 MEMB     85       SAPS     C216     CTL2    -0.180000       12.0110           0
      9728 MEMB     85       SAPS     H16R     HAL2     0.900000E-01   1.00800           0
      9729 MEMB     85       SAPS     H16S     HAL2     0.900000E-01   1.00800           0
      9730 MEMB     85       SAPS     C217     CTL2    -0.180000       12.0110           0
      9731 MEMB     85       SAPS     H17R     HAL2     0.900000E-01   1.00800           0
      9732 MEMB     85       SAPS     H17S     HAL2     0.900000E-01   1.00800           0
      9733 MEMB     85       SAPS     C218     CTL2    -0.180000       12.0110           0
      9734 MEMB     85       SAPS     H18R     HAL2     0.900000E-01   1.00800           0
      9735 MEMB     85       SAPS     H18S     HAL2     0.900000E-01   1.00800           0
      9736 MEMB     85       SAPS     C219     CTL2    -0.180000       12.0110           0
      9737 MEMB     85       SAPS     H19R     HAL2     0.900000E-01   1.00800           0
      9738 MEMB     85       SAPS     H19S     HAL2     0.900000E-01   1.00800           0
      9739 MEMB     85       SAPS     C220     CTL3    -0.270000       12.0110           0
      9740 MEMB     85       SAPS     H20R     HAL3     0.900000E-01   1.00800           0
      9741 MEMB     85       SAPS     H20S     HAL3     0.900000E-01   1.00800           0
      9742 MEMB     85       SAPS     H20T     HAL3     0.900000E-01   1.00800           0
      9743 MEMB     85       SAPS     C33      CTL2    -0.180000       12.0110           0
      9744 MEMB     85       SAPS     H3X      HAL2     0.900000E-01   1.00800           0
      9745 MEMB     85       SAPS     H3Y      HAL2     0.900000E-01   1.00800           0
      9746 MEMB     85       SAPS     C34      CTL2    -0.180000       12.0110           0
      9747 MEMB     85       SAPS     H4X      HAL2     0.900000E-01   1.00800           0
      9748 MEMB     85       SAPS     H4Y      HAL2     0.900000E-01   1.00800           0
      9749 MEMB     85       SAPS     C35      CTL2    -0.180000       12.0110           0
      9750 MEMB     85       SAPS     H5X      HAL2     0.900000E-01   1.00800           0
      9751 MEMB     85       SAPS     H5Y      HAL2     0.900000E-01   1.00800           0
      9752 MEMB     85       SAPS     C36      CTL2    -0.180000       12.0110           0
      9753 MEMB     85       SAPS     H6X      HAL2     0.900000E-01   1.00800           0
      9754 MEMB     85       SAPS     H6Y      HAL2     0.900000E-01   1.00800           0
      9755 MEMB     85       SAPS     C37      CTL2    -0.180000       12.0110           0
      9756 MEMB     85       SAPS     H7X      HAL2     0.900000E-01   1.00800           0
      9757 MEMB     85       SAPS     H7Y      HAL2     0.900000E-01   1.00800           0
      9758 MEMB     85       SAPS     C38      CTL2    -0.180000       12.0110           0
      9759 MEMB     85       SAPS     H8X      HAL2     0.900000E-01   1.00800           0
      9760 MEMB     85       SAPS     H8Y      HAL2     0.900000E-01   1.00800           0
      9761 MEMB     85       SAPS     C39      CTL2    -0.180000       12.0110           0
      9762 MEMB     85       SAPS     H9X      HAL2     0.900000E-01   1.00800           0
      9763 MEMB     85       SAPS     H9Y      HAL2     0.900000E-01   1.00800           0
      9764 MEMB     85       SAPS     C310     CTL2    -0.180000       12.0110           0
      9765 MEMB     85       SAPS     H10X     HAL2     0.900000E-01   1.00800           0
      9766 MEMB     85       SAPS     H10Y     HAL2     0.900000E-01   1.00800           0
      9767 MEMB     85       SAPS     C311     CTL2    -0.180000       12.0110           0
      9768 MEMB     85       SAPS     H11X     HAL2     0.900000E-01   1.00800           0
      9769 MEMB     85       SAPS     H11Y     HAL2     0.900000E-01   1.00800           0
      9770 MEMB     85       SAPS     C312     CTL2    -0.180000       12.0110           0
      9771 MEMB     85       SAPS     H12X     HAL2     0.900000E-01   1.00800           0
      9772 MEMB     85       SAPS     H12Y     HAL2     0.900000E-01   1.00800           0
      9773 MEMB     85       SAPS     C313     CTL2    -0.180000       12.0110           0
      9774 MEMB     85       SAPS     H13X     HAL2     0.900000E-01   1.00800           0
      9775 MEMB     85       SAPS     H13Y     HAL2     0.900000E-01   1.00800           0
      9776 MEMB     85       SAPS     C314     CTL2    -0.180000       12.0110           0
      9777 MEMB     85       SAPS     H14X     HAL2     0.900000E-01   1.00800           0
      9778 MEMB     85       SAPS     H14Y     HAL2     0.900000E-01   1.00800           0
      9779 MEMB     85       SAPS     C315     CTL2    -0.180000       12.0110           0
      9780 MEMB     85       SAPS     H15X     HAL2     0.900000E-01   1.00800           0
      9781 MEMB     85       SAPS     H15Y     HAL2     0.900000E-01   1.00800           0
      9782 MEMB     85       SAPS     C316     CTL2    -0.180000       12.0110           0
      9783 MEMB     85       SAPS     H16X     HAL2     0.900000E-01   1.00800           0
      9784 MEMB     85       SAPS     H16Y     HAL2     0.900000E-01   1.00800           0
      9785 MEMB     85       SAPS     C317     CTL2    -0.180000       12.0110           0
      9786 MEMB     85       SAPS     H17X     HAL2     0.900000E-01   1.00800           0
      9787 MEMB     85       SAPS     H17Y     HAL2     0.900000E-01   1.00800           0
      9788 MEMB     85       SAPS     C318     CTL3    -0.270000       12.0110           0
      9789 MEMB     85       SAPS     H18X     HAL3     0.900000E-01   1.00800           0
      9790 MEMB     85       SAPS     H18Y     HAL3     0.900000E-01   1.00800           0
      9791 MEMB     85       SAPS     H18Z     HAL3     0.900000E-01   1.00800           0
      9792 MEMB     86       SAPC     N        NTL     -0.600000       14.0070           0
      9793 MEMB     86       SAPC     C12      CTL2    -0.100000       12.0110           0
      9794 MEMB     86       SAPC     H12A     HL       0.250000       1.00800           0
      9795 MEMB     86       SAPC     H12B     HL       0.250000       1.00800           0
      9796 MEMB     86       SAPC     C13      CTL5    -0.350000       12.0110           0
      9797 MEMB     86       SAPC     H13A     HL       0.250000       1.00800           0
      9798 MEMB     86       SAPC     H13B     HL       0.250000       1.00800           0
      9799 MEMB     86       SAPC     H13C     HL       0.250000       1.00800           0
      9800 MEMB     86       SAPC     C14      CTL5    -0.350000       12.0110           0
      9801 MEMB     86       SAPC     H14A     HL       0.250000       1.00800           0
      9802 MEMB     86       SAPC     H14B     HL       0.250000       1.00800           0
      9803 MEMB     86       SAPC     H14C     HL       0.250000       1.00800           0
      9804 MEMB     86       SAPC     C15      CTL5    -0.350000       12.0110           0
      9805 MEMB     86       SAPC     H15A     HL       0.250000       1.00800           0
      9806 MEMB     86       SAPC     H15B     HL       0.250000       1.00800           0
      9807 MEMB     86       SAPC     H15C     HL       0.250000       1.00800           0
      9808 MEMB     86       SAPC     C11      CTL2    -0.800000E-01   12.0110           0
      9809 MEMB     86       SAPC     H11A     HAL2     0.900000E-01   1.00800           0
      9810 MEMB     86       SAPC     H11B     HAL2     0.900000E-01   1.00800           0
      9811 MEMB     86       SAPC     P        PL        1.50000       30.9740           0
      9812 MEMB     86       SAPC     O13      O2L     -0.780000       15.9994           0
      9813 MEMB     86       SAPC     O14      O2L     -0.780000       15.9994           0
      9814 MEMB     86       SAPC     O12      OSLP    -0.570000       15.9994           0
      9815 MEMB     86       SAPC     O11      OSLP    -0.570000       15.9994           0
      9816 MEMB     86       SAPC     C1       CTL2    -0.800000E-01   12.0110           0
      9817 MEMB     86       SAPC     HA       HAL2     0.900000E-01   1.00800           0
      9818 MEMB     86       SAPC     HB       HAL2     0.900000E-01   1.00800           0
      9819 MEMB     86       SAPC     C2       CTL1     0.170000       12.0110           0
      9820 MEMB     86       SAPC     HS       HAL1     0.900000E-01   1.00800           0
      9821 MEMB     86       SAPC     O21      OSL     -0.490000       15.9994           0
      9822 MEMB     86       SAPC     C21      CL       0.900000       12.0110           0
      9823 MEMB     86       SAPC     O22      OBL     -0.630000       15.9994           0
      9824 MEMB     86       SAPC     C22      CTL2    -0.220000       12.0110           0
      9825 MEMB     86       SAPC     H2R      HAL2     0.900000E-01   1.00800           0
      9826 MEMB     86       SAPC     H2S      HAL2     0.900000E-01   1.00800           0
      9827 MEMB     86       SAPC     C3       CTL2     0.800000E-01   12.0110           0
      9828 MEMB     86       SAPC     HX       HAL2     0.900000E-01   1.00800           0
      9829 MEMB     86       SAPC     HY       HAL2     0.900000E-01   1.00800           0
      9830 MEMB     86       SAPC     O31      OSL     -0.490000       15.9994           0
      9831 MEMB     86       SAPC     C31      CL       0.900000       12.0110           0
      9832 MEMB     86       SAPC     O32      OBL     -0.630000       15.9994           0
      9833 MEMB     86       SAPC     C32      CTL2    -0.220000       12.0110           0
      9834 MEMB     86       SAPC     H2X      HAL2     0.900000E-01   1.00800           0
      9835 MEMB     86       SAPC     H2Y      HAL2     0.900000E-01   1.00800           0
      9836 MEMB     86       SAPC     C23      CTL2    -0.180000       12.0110           0
      9837 MEMB     86       SAPC     H3R      HAL2     0.900000E-01   1.00800           0
      9838 MEMB     86       SAPC     H3S      HAL2     0.900000E-01   1.00800           0
      9839 MEMB     86       SAPC     C24      CTL2    -0.180000       12.0110           0
      9840 MEMB     86       SAPC     H4R      HAL2     0.900000E-01   1.00800           0
      9841 MEMB     86       SAPC     H4S      HAL2     0.900000E-01   1.00800           0
      9842 MEMB     86       SAPC     C25      CEL1    -0.150000       12.0110           0
      9843 MEMB     86       SAPC     H5R      HEL1     0.150000       1.00800           0
      9844 MEMB     86       SAPC     C26      CEL1    -0.150000       12.0110           0
      9845 MEMB     86       SAPC     H6R      HEL1     0.150000       1.00800           0
      9846 MEMB     86       SAPC     C27      CTL2    -0.180000       12.0110           0
      9847 MEMB     86       SAPC     H7R      HAL2     0.900000E-01   1.00800           0
      9848 MEMB     86       SAPC     H7S      HAL2     0.900000E-01   1.00800           0
      9849 MEMB     86       SAPC     C28      CEL1    -0.150000       12.0110           0
      9850 MEMB     86       SAPC     H8R      HEL1     0.150000       1.00800           0
      9851 MEMB     86       SAPC     C29      CEL1    -0.150000       12.0110           0
      9852 MEMB     86       SAPC     H9R      HEL1     0.150000       1.00800           0
      9853 MEMB     86       SAPC     C210     CTL2    -0.180000       12.0110           0
      9854 MEMB     86       SAPC     H10R     HAL2     0.900000E-01   1.00800           0
      9855 MEMB     86       SAPC     H10S     HAL2     0.900000E-01   1.00800           0
      9856 MEMB     86       SAPC     C211     CEL1    -0.150000       12.0110           0
      9857 MEMB     86       SAPC     H11R     HEL1     0.150000       1.00800           0
      9858 MEMB     86       SAPC     C212     CEL1    -0.150000       12.0110           0
      9859 MEMB     86       SAPC     H12R     HEL1     0.150000       1.00800           0
      9860 MEMB     86       SAPC     C213     CTL2    -0.180000       12.0110           0
      9861 MEMB     86       SAPC     H13R     HAL2     0.900000E-01   1.00800           0
      9862 MEMB     86       SAPC     H13S     HAL2     0.900000E-01   1.00800           0
      9863 MEMB     86       SAPC     C214     CEL1    -0.150000       12.0110           0
      9864 MEMB     86       SAPC     H14R     HEL1     0.150000       1.00800           0
      9865 MEMB     86       SAPC     C215     CEL1    -0.150000       12.0110           0
      9866 MEMB     86       SAPC     H15R     HEL1     0.150000       1.00800           0
      9867 MEMB     86       SAPC     C216     CTL2    -0.180000       12.0110           0
      9868 MEMB     86       SAPC     H16R     HAL2     0.900000E-01   1.00800           0
      9869 MEMB     86       SAPC     H16S     HAL2     0.900000E-01   1.00800           0
      9870 MEMB     86       SAPC     C217     CTL2    -0.180000       12.0110           0
      9871 MEMB     86       SAPC     H17R     HAL2     0.900000E-01   1.00800           0
      9872 MEMB     86       SAPC     H17S     HAL2     0.900000E-01   1.00800           0
      9873 MEMB     86       SAPC     C218     CTL2    -0.270000       12.0110           0
      9874 MEMB     86       SAPC     H18R     HAL2     0.900000E-01   1.00800           0
      9875 MEMB     86       SAPC     H18S     HAL2     0.900000E-01   1.00800           0
      9876 MEMB     86       SAPC     C219     CTL2    -0.180000       12.0110           0
      9877 MEMB     86       SAPC     H19R     HAL2     0.900000E-01   1.00800           0
      9878 MEMB     86       SAPC     H19S     HAL2     0.900000E-01   1.00800           0
      9879 MEMB     86       SAPC     C220     CTL3    -0.180000       12.0110           0
      9880 MEMB     86       SAPC     H20R     HAL3     0.900000E-01   1.00800           0
      9881 MEMB     86       SAPC     H20S     HAL3     0.900000E-01   1.00800           0
      9882 MEMB     86       SAPC     H20T     HAL3     0.900000E-01   1.00800           0
      9883 MEMB     86       SAPC     C33      CTL2    -0.180000       12.0110           0
      9884 MEMB     86       SAPC     H3X      HAL2     0.900000E-01   1.00800           0
      9885 MEMB     86       SAPC     H3Y      HAL2     0.900000E-01   1.00800           0
      9886 MEMB     86       SAPC     C34      CTL2    -0.180000       12.0110           0
      9887 MEMB     86       SAPC     H4X      HAL2     0.900000E-01   1.00800           0
      9888 MEMB     86       SAPC     H4Y      HAL2     0.900000E-01   1.00800           0
      9889 MEMB     86       SAPC     C35      CTL2    -0.180000       12.0110           0
      9890 MEMB     86       SAPC     H5X      HAL2     0.900000E-01   1.00800           0
      9891 MEMB     86       SAPC     H5Y      HAL2     0.900000E-01   1.00800           0
      9892 MEMB     86       SAPC     C36      CTL2    -0.180000       12.0110           0
      9893 MEMB     86       SAPC     H6X      HAL2     0.900000E-01   1.00800           0
      9894 MEMB     86       SAPC     H6Y      HAL2     0.900000E-01   1.00800           0
      9895 MEMB     86       SAPC     C37      CTL2    -0.180000       12.0110           0
      9896 MEMB     86       SAPC     H7X      HAL2     0.900000E-01   1.00800           0
      9897 MEMB     86       SAPC     H7Y      HAL2     0.900000E-01   1.00800           0
      9898 MEMB     86       SAPC     C38      CTL2    -0.180000       12.0110           0
      9899 MEMB     86       SAPC     H8X      HAL2     0.900000E-01   1.00800           0
      9900 MEMB     86       SAPC     H8Y      HAL2     0.900000E-01   1.00800           0
      9901 MEMB     86       SAPC     C39      CTL2    -0.180000       12.0110           0
      9902 MEMB     86       SAPC     H9X      HAL2     0.900000E-01   1.00800           0
      9903 MEMB     86       SAPC     H9Y      HAL2     0.900000E-01   1.00800           0
      9904 MEMB     86       SAPC     C310     CTL2    -0.180000       12.0110           0
      9905 MEMB     86       SAPC     H10X     HAL2     0.900000E-01   1.00800           0
      9906 MEMB     86       SAPC     H10Y     HAL2     0.900000E-01   1.00800           0
      9907 MEMB     86       SAPC     C311     CTL2    -0.180000       12.0110           0
      9908 MEMB     86       SAPC     H11X     HAL2     0.900000E-01   1.00800           0
      9909 MEMB     86       SAPC     H11Y     HAL2     0.900000E-01   1.00800           0
      9910 MEMB     86       SAPC     C312     CTL2    -0.180000       12.0110           0
      9911 MEMB     86       SAPC     H12X     HAL2     0.900000E-01   1.00800           0
      9912 MEMB     86       SAPC     H12Y     HAL2     0.900000E-01   1.00800           0
      9913 MEMB     86       SAPC     C313     CTL2    -0.180000       12.0110           0
      9914 MEMB     86       SAPC     H13X     HAL2     0.900000E-01   1.00800           0
      9915 MEMB     86       SAPC     H13Y     HAL2     0.900000E-01   1.00800           0
      9916 MEMB     86       SAPC     C314     CTL2    -0.180000       12.0110           0
      9917 MEMB     86       SAPC     H14X     HAL2     0.900000E-01   1.00800           0
      9918 MEMB     86       SAPC     H14Y     HAL2     0.900000E-01   1.00800           0
      9919 MEMB     86       SAPC     C315     CTL2    -0.180000       12.0110           0
      9920 MEMB     86       SAPC     H15X     HAL2     0.900000E-01   1.00800           0
      9921 MEMB     86       SAPC     H15Y     HAL2     0.900000E-01   1.00800           0
      9922 MEMB     86       SAPC     C316     CTL2    -0.180000       12.0110           0
      9923 MEMB     86       SAPC     H16X     HAL2     0.900000E-01   1.00800           0
      9924 MEMB     86       SAPC     H16Y     HAL2     0.900000E-01   1.00800           0
      9925 MEMB     86       SAPC     C317     CTL2    -0.180000       12.0110           0
      9926 MEMB     86       SAPC     H17X     HAL2     0.900000E-01   1.00800           0
      9927 MEMB     86       SAPC     H17Y     HAL2     0.900000E-01   1.00800           0
      9928 MEMB     86       SAPC     C318     CTL3    -0.270000       12.0110           0
      9929 MEMB     86       SAPC     H18X     HAL3     0.900000E-01   1.00800           0
      9930 MEMB     86       SAPC     H18Y     HAL3     0.900000E-01   1.00800           0
      9931 MEMB     86       SAPC     H18Z     HAL3     0.900000E-01   1.00800           0
      9932 MEMB     87       CHL1     C3       CRL1     0.140000       12.0110           0
      9933 MEMB     87       CHL1     H3       HGA1     0.900000E-01   1.00800           0
      9934 MEMB     87       CHL1     O3       OHL     -0.660000       15.9994           0
      9935 MEMB     87       CHL1     H3'      HOL      0.430000       1.00800           0
      9936 MEMB     87       CHL1     C4       CRL2    -0.180000       12.0110           0
      9937 MEMB     87       CHL1     H4A      HGA2     0.900000E-01   1.00800           0
      9938 MEMB     87       CHL1     H4B      HGA2     0.900000E-01   1.00800           0
      9939 MEMB     87       CHL1     C5       CEL1      0.00000       12.0110           0
      9940 MEMB     87       CHL1     C6       CEL1    -0.150000       12.0110           0
      9941 MEMB     87       CHL1     H6       HEL1     0.150000       1.00800           0
      9942 MEMB     87       CHL1     C7       CRL2    -0.180000       12.0110           0
      9943 MEMB     87       CHL1     H7A      HGA2     0.900000E-01   1.00800           0
      9944 MEMB     87       CHL1     H7B      HGA2     0.900000E-01   1.00800           0
      9945 MEMB     87       CHL1     C8       CRL1    -0.900000E-01   12.0110           0
      9946 MEMB     87       CHL1     H8       HGA1     0.900000E-01   1.00800           0
      9947 MEMB     87       CHL1     C14      CRL1    -0.900000E-01   12.0110           0
      9948 MEMB     87       CHL1     H14      HGA1     0.900000E-01   1.00800           0
      9949 MEMB     87       CHL1     C15      CRL2    -0.180000       12.0110           0
      9950 MEMB     87       CHL1     H15A     HGA2     0.900000E-01   1.00800           0
      9951 MEMB     87       CHL1     H15B     HGA2     0.900000E-01   1.00800           0
      9952 MEMB     87       CHL1     C16      CRL2    -0.180000       12.0110           0
      9953 MEMB     87       CHL1     H16A     HGA2     0.900000E-01   1.00800           0
      9954 MEMB     87       CHL1     H16B     HGA2     0.900000E-01   1.00800           0
      9955 MEMB     87       CHL1     C17      CRL1    -0.900000E-01   12.0110           0
      9956 MEMB     87       CHL1     H17      HGA1     0.900000E-01   1.00800           0
      9957 MEMB     87       CHL1     C13      CRL1      0.00000       12.0110           0
      9958 MEMB     87       CHL1     C18      CTL3    -0.270000       12.0110           0
      9959 MEMB     87       CHL1     H18A     HAL3     0.900000E-01   1.00800           0
      9960 MEMB     87       CHL1     H18B     HAL3     0.900000E-01   1.00800           0
      9961 MEMB     87       CHL1     H18C     HAL3     0.900000E-01   1.00800           0
      9962 MEMB     87       CHL1     C12      CRL2    -0.180000       12.0110           0
      9963 MEMB     87       CHL1     H12A     HGA2     0.900000E-01   1.00800           0
      9964 MEMB     87       CHL1     H12B     HGA2     0.900000E-01   1.00800           0
      9965 MEMB     87       CHL1     C11      CRL2    -0.180000       12.0110           0
      9966 MEMB     87       CHL1     H11A     HGA2     0.900000E-01   1.00800           0
      9967 MEMB     87       CHL1     H11B     HGA2     0.900000E-01   1.00800           0
      9968 MEMB     87       CHL1     C9       CRL1    -0.900000E-01   12.0110           0
      9969 MEMB     87       CHL1     H9       HGA1     0.900000E-01   1.00800           0
      9970 MEMB     87       CHL1     C10      CRL1      0.00000       12.0110           0
      9971 MEMB     87       CHL1     C19      CTL3    -0.270000       12.0110           0
      9972 MEMB     87       CHL1     H19A     HAL3     0.900000E-01   1.00800           0
      9973 MEMB     87       CHL1     H19B     HAL3     0.900000E-01   1.00800           0
      9974 MEMB     87       CHL1     H19C     HAL3     0.900000E-01   1.00800           0
      9975 MEMB     87       CHL1     C1       CRL2    -0.180000       12.0110           0
      9976 MEMB     87       CHL1     H1A      HGA2     0.900000E-01   1.00800           0
      9977 MEMB     87       CHL1     H1B      HGA2     0.900000E-01   1.00800           0
      9978 MEMB     87       CHL1     C2       CRL2    -0.180000       12.0110           0
      9979 MEMB     87       CHL1     H2A      HGA2     0.900000E-01   1.00800           0
      9980 MEMB     87       CHL1     H2B      HGA2     0.900000E-01   1.00800           0
      9981 MEMB     87       CHL1     C20      CTL1    -0.900000E-01   12.0110           0
      9982 MEMB     87       CHL1     H20      HAL1     0.900000E-01   1.00800           0
      9983 MEMB     87       CHL1     C21      CTL3    -0.270000       12.0110           0
      9984 MEMB     87       CHL1     H21A     HAL3     0.900000E-01   1.00800           0
      9985 MEMB     87       CHL1     H21B     HAL3     0.900000E-01   1.00800           0
      9986 MEMB     87       CHL1     H21C     HAL3     0.900000E-01   1.00800           0
      9987 MEMB     87       CHL1     C22      CTL2    -0.180000       12.0110           0
      9988 MEMB     87       CHL1     H22A     HAL2     0.900000E-01   1.00800           0
      9989 MEMB     87       CHL1     H22B     HAL2     0.900000E-01   1.00800           0
      9990 MEMB     87       CHL1     C23      CTL2    -0.180000       12.0110           0
      9991 MEMB     87       CHL1     H23A     HAL2     0.900000E-01   1.00800           0
      9992 MEMB     87       CHL1     H23B     HAL2     0.900000E-01   1.00800           0
      9993 MEMB     87       CHL1     C24      CTL2    -0.180000       12.0110           0
      9994 MEMB     87       CHL1     H24A     HAL2     0.900000E-01   1.00800           0
      9995 MEMB     87       CHL1     H24B     HAL2     0.900000E-01   1.00800           0
      9996 MEMB     87       CHL1     C25      CTL1    -0.900000E-01   12.0110           0
      9997 MEMB     87       CHL1     H25      HAL1     0.900000E-01   1.00800           0
      9998 MEMB     87       CHL1     C26      CTL3    -0.270000       12.0110           0
      9999 MEMB     87       CHL1     H26A     HAL3     0.900000E-01   1.00800           0
     10000 MEMB     87       CHL1     H26B     HAL3     0.900000E-01   1.00800           0
     10001 MEMB     87       CHL1     H26C     HAL3     0.900000E-01   1.00800           0
     10002 MEMB     87       CHL1     C27      CTL3    -0.270000       12.0110           0
     10003 MEMB     87       CHL1     H27A     HAL3     0.900000E-01   1.00800           0
     10004 MEMB     87       CHL1     H27B     HAL3     0.900000E-01   1.00800           0
     10005 MEMB     87       CHL1     H27C     HAL3     0.900000E-01   1.00800           0
     10006 MEMB     88       SLPC     N        NTL     -0.600000       14.0070           0
     10007 MEMB     88       SLPC     C13      CTL5    -0.350000       12.0110           0
     10008 MEMB     88       SLPC     H13A     HL       0.250000       1.00800           0
     10009 MEMB     88       SLPC     H13B     HL       0.250000       1.00800           0
     10010 MEMB     88       SLPC     H13C     HL       0.250000       1.00800           0
     10011 MEMB     88       SLPC     C14      CTL5    -0.350000       12.0110           0
     10012 MEMB     88       SLPC     H14A     HL       0.250000       1.00800           0
     10013 MEMB     88       SLPC     H14B     HL       0.250000       1.00800           0
     10014 MEMB     88       SLPC     H14C     HL       0.250000       1.00800           0
     10015 MEMB     88       SLPC     C15      CTL5    -0.350000       12.0110           0
     10016 MEMB     88       SLPC     H15A     HL       0.250000       1.00800           0
     10017 MEMB     88       SLPC     H15B     HL       0.250000       1.00800           0
     10018 MEMB     88       SLPC     H15C     HL       0.250000       1.00800           0
     10019 MEMB     88       SLPC     C12      CTL2    -0.100000       12.0110           0
     10020 MEMB     88       SLPC     H12A     HL       0.250000       1.00800           0
     10021 MEMB     88       SLPC     H12B     HL       0.250000       1.00800           0
     10022 MEMB     88       SLPC     C11      CTL2    -0.800000E-01   12.0110           0
     10023 MEMB     88       SLPC     H11A     HAL2     0.900000E-01   1.00800           0
     10024 MEMB     88       SLPC     H11B     HAL2     0.900000E-01   1.00800           0
     10025 MEMB     88       SLPC     P        PL        1.50000       30.9740           0
     10026 MEMB     88       SLPC     O13      O2L     -0.780000       15.9994           0
     10027 MEMB     88       SLPC     O14      O2L     -0.780000       15.9994           0
     10028 MEMB     88       SLPC     O12      OSLP    -0.570000       15.9994           0
     10029 MEMB     88       SLPC     O11      OSLP    -0.570000       15.9994           0
     10030 MEMB     88       SLPC     C1       CTL2    -0.800000E-01   12.0110           0
     10031 MEMB     88       SLPC     HA       HAL2     0.900000E-01   1.00800           0
     10032 MEMB     88       SLPC     HB       HAL2     0.900000E-01   1.00800           0
     10033 MEMB     88       SLPC     C2       CTL1     0.170000       12.0110           0
     10034 MEMB     88       SLPC     HS       HAL1     0.900000E-01   1.00800           0
     10035 MEMB     88       SLPC     O21      OSL     -0.490000       15.9994           0
     10036 MEMB     88       SLPC     C21      CL       0.900000       12.0110           0
     10037 MEMB     88       SLPC     O22      OBL     -0.630000       15.9994           0
     10038 MEMB     88       SLPC     C22      CTL2    -0.220000       12.0110           0
     10039 MEMB     88       SLPC     H2R      HAL2     0.900000E-01   1.00800           0
     10040 MEMB     88       SLPC     H2S      HAL2     0.900000E-01   1.00800           0
     10041 MEMB     88       SLPC     C3       CTL2     0.800000E-01   12.0110           0
     10042 MEMB     88       SLPC     HX       HAL2     0.900000E-01   1.00800           0
     10043 MEMB     88       SLPC     HY       HAL2     0.900000E-01   1.00800           0
     10044 MEMB     88       SLPC     O31      OSL     -0.490000       15.9994           0
     10045 MEMB     88       SLPC     C31      CL       0.900000       12.0110           0
     10046 MEMB     88       SLPC     O32      OBL     -0.630000       15.9994           0
     10047 MEMB     88       SLPC     C32      CTL2    -0.220000       12.0110           0
     10048 MEMB     88       SLPC     H2X      HAL2     0.900000E-01   1.00800           0
     10049 MEMB     88       SLPC     H2Y      HAL2     0.900000E-01   1.00800           0
     10050 MEMB     88       SLPC     C23      CTL2    -0.180000       12.0110           0
     10051 MEMB     88       SLPC     H3R      HAL2     0.900000E-01   1.00800           0
     10052 MEMB     88       SLPC     H3S      HAL2     0.900000E-01   1.00800           0
     10053 MEMB     88       SLPC     C24      CTL2    -0.180000       12.0110           0
     10054 MEMB     88       SLPC     H4R      HAL2     0.900000E-01   1.00800           0
     10055 MEMB     88       SLPC     H4S      HAL2     0.900000E-01   1.00800           0
     10056 MEMB     88       SLPC     C25      CTL2    -0.180000       12.0110           0
     10057 MEMB     88       SLPC     H5R      HAL2     0.900000E-01   1.00800           0
     10058 MEMB     88       SLPC     H5S      HAL2     0.900000E-01   1.00800           0
     10059 MEMB     88       SLPC     C26      CTL2    -0.180000       12.0110           0
     10060 MEMB     88       SLPC     H6R      HAL2     0.900000E-01   1.00800           0
     10061 MEMB     88       SLPC     H6S      HAL2     0.900000E-01   1.00800           0
     10062 MEMB     88       SLPC     C27      CTL2    -0.180000       12.0110           0
     10063 MEMB     88       SLPC     H7R      HAL2     0.900000E-01   1.00800           0
     10064 MEMB     88       SLPC     H7S      HAL2     0.900000E-01   1.00800           0
     10065 MEMB     88       SLPC     C28      CTL2    -0.180000       12.0110           0
     10066 MEMB     88       SLPC     H8R      HAL2     0.900000E-01   1.00800           0
     10067 MEMB     88       SLPC     H8S      HAL2     0.900000E-01   1.00800           0
     10068 MEMB     88       SLPC     C29      CEL1    -0.150000       12.0110           0
     10069 MEMB     88       SLPC     H9R      HEL1     0.150000       1.00800           0
     10070 MEMB     88       SLPC     C210     CEL1    -0.150000       12.0110           0
     10071 MEMB     88       SLPC     H10R     HEL1     0.150000       1.00800           0
     10072 MEMB     88       SLPC     C211     CTL2    -0.180000       12.0110           0
     10073 MEMB     88       SLPC     H11R     HAL2     0.900000E-01   1.00800           0
     10074 MEMB     88       SLPC     H11S     HAL2     0.900000E-01   1.00800           0
     10075 MEMB     88       SLPC     C212     CEL1    -0.150000       12.0110           0
     10076 MEMB     88       SLPC     H12R     HEL1     0.150000       1.00800           0
     10077 MEMB     88       SLPC     C213     CEL1    -0.150000       12.0110           0
     10078 MEMB     88       SLPC     H13R     HEL1     0.150000       1.00800           0
     10079 MEMB     88       SLPC     C214     CTL2    -0.180000       12.0110           0
     10080 MEMB     88       SLPC     H14R     HAL2     0.900000E-01   1.00800           0
     10081 MEMB     88       SLPC     H14S     HAL2     0.900000E-01   1.00800           0
     10082 MEMB     88       SLPC     C215     CTL2    -0.180000       12.0110           0
     10083 MEMB     88       SLPC     H15R     HAL2     0.900000E-01   1.00800           0
     10084 MEMB     88       SLPC     H15S     HAL2     0.900000E-01   1.00800           0
     10085 MEMB     88       SLPC     C216     CTL2    -0.180000       12.0110           0
     10086 MEMB     88       SLPC     H16R     HAL2     0.900000E-01   1.00800           0
     10087 MEMB     88       SLPC     H16S     HAL2     0.900000E-01   1.00800           0
     10088 MEMB     88       SLPC     C217     CTL2    -0.180000       12.0110           0
     10089 MEMB     88       SLPC     H17R     HAL2     0.900000E-01   1.00800           0
     10090 MEMB     88       SLPC     H17S     HAL2     0.900000E-01   1.00800           0
     10091 MEMB     88       SLPC     C218     CTL3    -0.270000       12.0110           0
     10092 MEMB     88       SLPC     H18R     HAL3     0.900000E-01   1.00800           0
     10093 MEMB     88       SLPC     H18S     HAL3     0.900000E-01   1.00800           0
     10094 MEMB     88       SLPC     H18T     HAL3     0.900000E-01   1.00800           0
     10095 MEMB     88       SLPC     C33      CTL2    -0.180000       12.0110           0
     10096 MEMB     88       SLPC     H3X      HAL2     0.900000E-01   1.00800           0
     10097 MEMB     88       SLPC     H3Y      HAL2     0.900000E-01   1.00800           0
     10098 MEMB     88       SLPC     C34      CTL2    -0.180000       12.0110           0
     10099 MEMB     88       SLPC     H4X      HAL2     0.900000E-01   1.00800           0
     10100 MEMB     88       SLPC     H4Y      HAL2     0.900000E-01   1.00800           0
     10101 MEMB     88       SLPC     C35      CTL2    -0.180000       12.0110           0
     10102 MEMB     88       SLPC     H5X      HAL2     0.900000E-01   1.00800           0
     10103 MEMB     88       SLPC     H5Y      HAL2     0.900000E-01   1.00800           0
     10104 MEMB     88       SLPC     C36      CTL2    -0.180000       12.0110           0
     10105 MEMB     88       SLPC     H6X      HAL2     0.900000E-01   1.00800           0
     10106 MEMB     88       SLPC     H6Y      HAL2     0.900000E-01   1.00800           0
     10107 MEMB     88       SLPC     C37      CTL2    -0.180000       12.0110           0
     10108 MEMB     88       SLPC     H7X      HAL2     0.900000E-01   1.00800           0
     10109 MEMB     88       SLPC     H7Y      HAL2     0.900000E-01   1.00800           0
     10110 MEMB     88       SLPC     C38      CTL2    -0.180000       12.0110           0
     10111 MEMB     88       SLPC     H8X      HAL2     0.900000E-01   1.00800           0
     10112 MEMB     88       SLPC     H8Y      HAL2     0.900000E-01   1.00800           0
     10113 MEMB     88       SLPC     C39      CTL2    -0.180000       12.0110           0
     10114 MEMB     88       SLPC     H9X      HAL2     0.900000E-01   1.00800           0
     10115 MEMB     88       SLPC     H9Y      HAL2     0.900000E-01   1.00800           0
     10116 MEMB     88       SLPC     C310     CTL2    -0.180000       12.0110           0
     10117 MEMB     88       SLPC     H10X     HAL2     0.900000E-01   1.00800           0
     10118 MEMB     88       SLPC     H10Y     HAL2     0.900000E-01   1.00800           0
     10119 MEMB     88       SLPC     C311     CTL2    -0.180000       12.0110           0
     10120 MEMB     88       SLPC     H11X     HAL2     0.900000E-01   1.00800           0
     10121 MEMB     88       SLPC     H11Y     HAL2     0.900000E-01   1.00800           0
     10122 MEMB     88       SLPC     C312     CTL2    -0.180000       12.0110           0
     10123 MEMB     88       SLPC     H12X     HAL2     0.900000E-01   1.00800           0
     10124 MEMB     88       SLPC     H12Y     HAL2     0.900000E-01   1.00800           0
     10125 MEMB     88       SLPC     C313     CTL2    -0.180000       12.0110           0
     10126 MEMB     88       SLPC     H13X     HAL2     0.900000E-01   1.00800           0
     10127 MEMB     88       SLPC     H13Y     HAL2     0.900000E-01   1.00800           0
     10128 MEMB     88       SLPC     C314     CTL2    -0.180000       12.0110           0
     10129 MEMB     88       SLPC     H14X     HAL2     0.900000E-01   1.00800           0
     10130 MEMB     88       SLPC     H14Y     HAL2     0.900000E-01   1.00800           0
     10131 MEMB     88       SLPC     C315     CTL2    -0.180000       12.0110           0
     10132 MEMB     88       SLPC     H15X     HAL2     0.900000E-01   1.00800           0
     10133 MEMB     88       SLPC     H15Y     HAL2     0.900000E-01   1.00800           0
     10134 MEMB     88       SLPC     C316     CTL2    -0.180000       12.0110           0
     10135 MEMB     88       SLPC     H16X     HAL2     0.900000E-01   1.00800           0
     10136 MEMB     88       SLPC     H16Y     HAL2     0.900000E-01   1.00800           0
     10137 MEMB     88       SLPC     C317     CTL2    -0.180000       12.0110           0
     10138 MEMB     88       SLPC     H17X     HAL2     0.900000E-01   1.00800           0
     10139 MEMB     88       SLPC     H17Y     HAL2     0.900000E-01   1.00800           0
     10140 MEMB     88       SLPC     C318     CTL3    -0.270000       12.0110           0
     10141 MEMB     88       SLPC     H18X     HAL3     0.900000E-01   1.00800           0
     10142 MEMB     88       SLPC     H18Y     HAL3     0.900000E-01   1.00800           0
     10143 MEMB     88       SLPC     H18Z     HAL3     0.900000E-01   1.00800           0
     10144 MEMB     89       SLPC     N        NTL     -0.600000       14.0070           0
     10145 MEMB     89       SLPC     C13      CTL5    -0.350000       12.0110           0
     10146 MEMB     89       SLPC     H13A     HL       0.250000       1.00800           0
     10147 MEMB     89       SLPC     H13B     HL       0.250000       1.00800           0
     10148 MEMB     89       SLPC     H13C     HL       0.250000       1.00800           0
     10149 MEMB     89       SLPC     C14      CTL5    -0.350000       12.0110           0
     10150 MEMB     89       SLPC     H14A     HL       0.250000       1.00800           0
     10151 MEMB     89       SLPC     H14B     HL       0.250000       1.00800           0
     10152 MEMB     89       SLPC     H14C     HL       0.250000       1.00800           0
     10153 MEMB     89       SLPC     C15      CTL5    -0.350000       12.0110           0
     10154 MEMB     89       SLPC     H15A     HL       0.250000       1.00800           0
     10155 MEMB     89       SLPC     H15B     HL       0.250000       1.00800           0
     10156 MEMB     89       SLPC     H15C     HL       0.250000       1.00800           0
     10157 MEMB     89       SLPC     C12      CTL2    -0.100000       12.0110           0
     10158 MEMB     89       SLPC     H12A     HL       0.250000       1.00800           0
     10159 MEMB     89       SLPC     H12B     HL       0.250000       1.00800           0
     10160 MEMB     89       SLPC     C11      CTL2    -0.800000E-01   12.0110           0
     10161 MEMB     89       SLPC     H11A     HAL2     0.900000E-01   1.00800           0
     10162 MEMB     89       SLPC     H11B     HAL2     0.900000E-01   1.00800           0
     10163 MEMB     89       SLPC     P        PL        1.50000       30.9740           0
     10164 MEMB     89       SLPC     O13      O2L     -0.780000       15.9994           0
     10165 MEMB     89       SLPC     O14      O2L     -0.780000       15.9994           0
     10166 MEMB     89       SLPC     O12      OSLP    -0.570000       15.9994           0
     10167 MEMB     89       SLPC     O11      OSLP    -0.570000       15.9994           0
     10168 MEMB     89       SLPC     C1       CTL2    -0.800000E-01   12.0110           0
     10169 MEMB     89       SLPC     HA       HAL2     0.900000E-01   1.00800           0
     10170 MEMB     89       SLPC     HB       HAL2     0.900000E-01   1.00800           0
     10171 MEMB     89       SLPC     C2       CTL1     0.170000       12.0110           0
     10172 MEMB     89       SLPC     HS       HAL1     0.900000E-01   1.00800           0
     10173 MEMB     89       SLPC     O21      OSL     -0.490000       15.9994           0
     10174 MEMB     89       SLPC     C21      CL       0.900000       12.0110           0
     10175 MEMB     89       SLPC     O22      OBL     -0.630000       15.9994           0
     10176 MEMB     89       SLPC     C22      CTL2    -0.220000       12.0110           0
     10177 MEMB     89       SLPC     H2R      HAL2     0.900000E-01   1.00800           0
     10178 MEMB     89       SLPC     H2S      HAL2     0.900000E-01   1.00800           0
     10179 MEMB     89       SLPC     C3       CTL2     0.800000E-01   12.0110           0
     10180 MEMB     89       SLPC     HX       HAL2     0.900000E-01   1.00800           0
     10181 MEMB     89       SLPC     HY       HAL2     0.900000E-01   1.00800           0
     10182 MEMB     89       SLPC     O31      OSL     -0.490000       15.9994           0
     10183 MEMB     89       SLPC     C31      CL       0.900000       12.0110           0
     10184 MEMB     89       SLPC     O32      OBL     -0.630000       15.9994           0
     10185 MEMB     89       SLPC     C32      CTL2    -0.220000       12.0110           0
     10186 MEMB     89       SLPC     H2X      HAL2     0.900000E-01   1.00800           0
     10187 MEMB     89       SLPC     H2Y      HAL2     0.900000E-01   1.00800           0
     10188 MEMB     89       SLPC     C23      CTL2    -0.180000       12.0110           0
     10189 MEMB     89       SLPC     H3R      HAL2     0.900000E-01   1.00800           0
     10190 MEMB     89       SLPC     H3S      HAL2     0.900000E-01   1.00800           0
     10191 MEMB     89       SLPC     C24      CTL2    -0.180000       12.0110           0
     10192 MEMB     89       SLPC     H4R      HAL2     0.900000E-01   1.00800           0
     10193 MEMB     89       SLPC     H4S      HAL2     0.900000E-01   1.00800           0
     10194 MEMB     89       SLPC     C25      CTL2    -0.180000       12.0110           0
     10195 MEMB     89       SLPC     H5R      HAL2     0.900000E-01   1.00800           0
     10196 MEMB     89       SLPC     H5S      HAL2     0.900000E-01   1.00800           0
     10197 MEMB     89       SLPC     C26      CTL2    -0.180000       12.0110           0
     10198 MEMB     89       SLPC     H6R      HAL2     0.900000E-01   1.00800           0
     10199 MEMB     89       SLPC     H6S      HAL2     0.900000E-01   1.00800           0
     10200 MEMB     89       SLPC     C27      CTL2    -0.180000       12.0110           0
     10201 MEMB     89       SLPC     H7R      HAL2     0.900000E-01   1.00800           0
     10202 MEMB     89       SLPC     H7S      HAL2     0.900000E-01   1.00800           0
     10203 MEMB     89       SLPC     C28      CTL2    -0.180000       12.0110           0
     10204 MEMB     89       SLPC     H8R      HAL2     0.900000E-01   1.00800           0
     10205 MEMB     89       SLPC     H8S      HAL2     0.900000E-01   1.00800           0
     10206 MEMB     89       SLPC     C29      CEL1    -0.150000       12.0110           0
     10207 MEMB     89       SLPC     H9R      HEL1     0.150000       1.00800           0
     10208 MEMB     89       SLPC     C210     CEL1    -0.150000       12.0110           0
     10209 MEMB     89       SLPC     H10R     HEL1     0.150000       1.00800           0
     10210 MEMB     89       SLPC     C211     CTL2    -0.180000       12.0110           0
     10211 MEMB     89       SLPC     H11R     HAL2     0.900000E-01   1.00800           0
     10212 MEMB     89       SLPC     H11S     HAL2     0.900000E-01   1.00800           0
     10213 MEMB     89       SLPC     C212     CEL1    -0.150000       12.0110           0
     10214 MEMB     89       SLPC     H12R     HEL1     0.150000       1.00800           0
     10215 MEMB     89       SLPC     C213     CEL1    -0.150000       12.0110           0
     10216 MEMB     89       SLPC     H13R     HEL1     0.150000       1.00800           0
     10217 MEMB     89       SLPC     C214     CTL2    -0.180000       12.0110           0
     10218 MEMB     89       SLPC     H14R     HAL2     0.900000E-01   1.00800           0
     10219 MEMB     89       SLPC     H14S     HAL2     0.900000E-01   1.00800           0
     10220 MEMB     89       SLPC     C215     CTL2    -0.180000       12.0110           0
     10221 MEMB     89       SLPC     H15R     HAL2     0.900000E-01   1.00800           0
     10222 MEMB     89       SLPC     H15S     HAL2     0.900000E-01   1.00800           0
     10223 MEMB     89       SLPC     C216     CTL2    -0.180000       12.0110           0
     10224 MEMB     89       SLPC     H16R     HAL2     0.900000E-01   1.00800           0
     10225 MEMB     89       SLPC     H16S     HAL2     0.900000E-01   1.00800           0
     10226 MEMB     89       SLPC     C217     CTL2    -0.180000       12.0110           0
     10227 MEMB     89       SLPC     H17R     HAL2     0.900000E-01   1.00800           0
     10228 MEMB     89       SLPC     H17S     HAL2     0.900000E-01   1.00800           0
     10229 MEMB     89       SLPC     C218     CTL3    -0.270000       12.0110           0
     10230 MEMB     89       SLPC     H18R     HAL3     0.900000E-01   1.00800           0
     10231 MEMB     89       SLPC     H18S     HAL3     0.900000E-01   1.00800           0
     10232 MEMB     89       SLPC     H18T     HAL3     0.900000E-01   1.00800           0
     10233 MEMB     89       SLPC     C33      CTL2    -0.180000       12.0110           0
     10234 MEMB     89       SLPC     H3X      HAL2     0.900000E-01   1.00800           0
     10235 MEMB     89       SLPC     H3Y      HAL2     0.900000E-01   1.00800           0
     10236 MEMB     89       SLPC     C34      CTL2    -0.180000       12.0110           0
     10237 MEMB     89       SLPC     H4X      HAL2     0.900000E-01   1.00800           0
     10238 MEMB     89       SLPC     H4Y      HAL2     0.900000E-01   1.00800           0
     10239 MEMB     89       SLPC     C35      CTL2    -0.180000       12.0110           0
     10240 MEMB     89       SLPC     H5X      HAL2     0.900000E-01   1.00800           0
     10241 MEMB     89       SLPC     H5Y      HAL2     0.900000E-01   1.00800           0
     10242 MEMB     89       SLPC     C36      CTL2    -0.180000       12.0110           0
     10243 MEMB     89       SLPC     H6X      HAL2     0.900000E-01   1.00800           0
     10244 MEMB     89       SLPC     H6Y      HAL2     0.900000E-01   1.00800           0
     10245 MEMB     89       SLPC     C37      CTL2    -0.180000       12.0110           0
     10246 MEMB     89       SLPC     H7X      HAL2     0.900000E-01   1.00800           0
     10247 MEMB     89       SLPC     H7Y      HAL2     0.900000E-01   1.00800           0
     10248 MEMB     89       SLPC     C38      CTL2    -0.180000       12.0110           0
     10249 MEMB     89       SLPC     H8X      HAL2     0.900000E-01   1.00800           0
     10250 MEMB     89       SLPC     H8Y      HAL2     0.900000E-01   1.00800           0
     10251 MEMB     89       SLPC     C39      CTL2    -0.180000       12.0110           0
     10252 MEMB     89       SLPC     H9X      HAL2     0.900000E-01   1.00800           0
     10253 MEMB     89       SLPC     H9Y      HAL2     0.900000E-01   1.00800           0
     10254 MEMB     89       SLPC     C310     CTL2    -0.180000       12.0110           0
     10255 MEMB     89       SLPC     H10X     HAL2     0.900000E-01   1.00800           0
     10256 MEMB     89       SLPC     H10Y     HAL2     0.900000E-01   1.00800           0
     10257 MEMB     89       SLPC     C311     CTL2    -0.180000       12.0110           0
     10258 MEMB     89       SLPC     H11X     HAL2     0.900000E-01   1.00800           0
     10259 MEMB     89       SLPC     H11Y     HAL2     0.900000E-01   1.00800           0
     10260 MEMB     89       SLPC     C312     CTL2    -0.180000       12.0110           0
     10261 MEMB     89       SLPC     H12X     HAL2     0.900000E-01   1.00800           0
     10262 MEMB     89       SLPC     H12Y     HAL2     0.900000E-01   1.00800           0
     10263 MEMB     89       SLPC     C313     CTL2    -0.180000       12.0110           0
     10264 MEMB     89       SLPC     H13X     HAL2     0.900000E-01   1.00800           0
     10265 MEMB     89       SLPC     H13Y     HAL2     0.900000E-01   1.00800           0
     10266 MEMB     89       SLPC     C314     CTL2    -0.180000       12.0110           0
     10267 MEMB     89       SLPC     H14X     HAL2     0.900000E-01   1.00800           0
     10268 MEMB     89       SLPC     H14Y     HAL2     0.900000E-01   1.00800           0
     10269 MEMB     89       SLPC     C315     CTL2    -0.180000       12.0110           0
     10270 MEMB     89       SLPC     H15X     HAL2     0.900000E-01   1.00800           0
     10271 MEMB     89       SLPC     H15Y     HAL2     0.900000E-01   1.00800           0
     10272 MEMB     89       SLPC     C316     CTL2    -0.180000       12.0110           0
     10273 MEMB     89       SLPC     H16X     HAL2     0.900000E-01   1.00800           0
     10274 MEMB     89       SLPC     H16Y     HAL2     0.900000E-01   1.00800           0
     10275 MEMB     89       SLPC     C317     CTL2    -0.180000       12.0110           0
     10276 MEMB     89       SLPC     H17X     HAL2     0.900000E-01   1.00800           0
     10277 MEMB     89       SLPC     H17Y     HAL2     0.900000E-01   1.00800           0
     10278 MEMB     89       SLPC     C318     CTL3    -0.270000       12.0110           0
     10279 MEMB     89       SLPC     H18X     HAL3     0.900000E-01   1.00800           0
     10280 MEMB     89       SLPC     H18Y     HAL3     0.900000E-01   1.00800           0
     10281 MEMB     89       SLPC     H18Z     HAL3     0.900000E-01   1.00800           0
     10282 MEMB     90       POPC     N        NTL     -0.600000       14.0070           0
     10283 MEMB     90       POPC     C12      CTL2    -0.100000       12.0110           0
     10284 MEMB     90       POPC     H12A     HL       0.250000       1.00800           0
     10285 MEMB     90       POPC     H12B     HL       0.250000       1.00800           0
     10286 MEMB     90       POPC     C13      CTL5    -0.350000       12.0110           0
     10287 MEMB     90       POPC     H13A     HL       0.250000       1.00800           0
     10288 MEMB     90       POPC     H13B     HL       0.250000       1.00800           0
     10289 MEMB     90       POPC     H13C     HL       0.250000       1.00800           0
     10290 MEMB     90       POPC     C14      CTL5    -0.350000       12.0110           0
     10291 MEMB     90       POPC     H14A     HL       0.250000       1.00800           0
     10292 MEMB     90       POPC     H14B     HL       0.250000       1.00800           0
     10293 MEMB     90       POPC     H14C     HL       0.250000       1.00800           0
     10294 MEMB     90       POPC     C15      CTL5    -0.350000       12.0110           0
     10295 MEMB     90       POPC     H15A     HL       0.250000       1.00800           0
     10296 MEMB     90       POPC     H15B     HL       0.250000       1.00800           0
     10297 MEMB     90       POPC     H15C     HL       0.250000       1.00800           0
     10298 MEMB     90       POPC     C11      CTL2    -0.800000E-01   12.0110           0
     10299 MEMB     90       POPC     H11A     HAL2     0.900000E-01   1.00800           0
     10300 MEMB     90       POPC     H11B     HAL2     0.900000E-01   1.00800           0
     10301 MEMB     90       POPC     P        PL        1.50000       30.9740           0
     10302 MEMB     90       POPC     O13      O2L     -0.780000       15.9994           0
     10303 MEMB     90       POPC     O14      O2L     -0.780000       15.9994           0
     10304 MEMB     90       POPC     O12      OSLP    -0.570000       15.9994           0
     10305 MEMB     90       POPC     O11      OSLP    -0.570000       15.9994           0
     10306 MEMB     90       POPC     C1       CTL2    -0.800000E-01   12.0110           0
     10307 MEMB     90       POPC     HA       HAL2     0.900000E-01   1.00800           0
     10308 MEMB     90       POPC     HB       HAL2     0.900000E-01   1.00800           0
     10309 MEMB     90       POPC     C2       CTL1     0.170000       12.0110           0
     10310 MEMB     90       POPC     HS       HAL1     0.900000E-01   1.00800           0
     10311 MEMB     90       POPC     O21      OSL     -0.490000       15.9994           0
     10312 MEMB     90       POPC     C21      CL       0.900000       12.0110           0
     10313 MEMB     90       POPC     O22      OBL     -0.630000       15.9994           0
     10314 MEMB     90       POPC     C22      CTL2    -0.220000       12.0110           0
     10315 MEMB     90       POPC     H2R      HAL2     0.900000E-01   1.00800           0
     10316 MEMB     90       POPC     H2S      HAL2     0.900000E-01   1.00800           0
     10317 MEMB     90       POPC     C3       CTL2     0.800000E-01   12.0110           0
     10318 MEMB     90       POPC     HX       HAL2     0.900000E-01   1.00800           0
     10319 MEMB     90       POPC     HY       HAL2     0.900000E-01   1.00800           0
     10320 MEMB     90       POPC     O31      OSL     -0.490000       15.9994           0
     10321 MEMB     90       POPC     C31      CL       0.900000       12.0110           0
     10322 MEMB     90       POPC     O32      OBL     -0.630000       15.9994           0
     10323 MEMB     90       POPC     C32      CTL2    -0.220000       12.0110           0
     10324 MEMB     90       POPC     H2X      HAL2     0.900000E-01   1.00800           0
     10325 MEMB     90       POPC     H2Y      HAL2     0.900000E-01   1.00800           0
     10326 MEMB     90       POPC     C23      CTL2    -0.180000       12.0110           0
     10327 MEMB     90       POPC     H3R      HAL2     0.900000E-01   1.00800           0
     10328 MEMB     90       POPC     H3S      HAL2     0.900000E-01   1.00800           0
     10329 MEMB     90       POPC     C24      CTL2    -0.180000       12.0110           0
     10330 MEMB     90       POPC     H4R      HAL2     0.900000E-01   1.00800           0
     10331 MEMB     90       POPC     H4S      HAL2     0.900000E-01   1.00800           0
     10332 MEMB     90       POPC     C25      CTL2    -0.180000       12.0110           0
     10333 MEMB     90       POPC     H5R      HAL2     0.900000E-01   1.00800           0
     10334 MEMB     90       POPC     H5S      HAL2     0.900000E-01   1.00800           0
     10335 MEMB     90       POPC     C26      CTL2    -0.180000       12.0110           0
     10336 MEMB     90       POPC     H6R      HAL2     0.900000E-01   1.00800           0
     10337 MEMB     90       POPC     H6S      HAL2     0.900000E-01   1.00800           0
     10338 MEMB     90       POPC     C27      CTL2    -0.180000       12.0110           0
     10339 MEMB     90       POPC     H7R      HAL2     0.900000E-01   1.00800           0
     10340 MEMB     90       POPC     H7S      HAL2     0.900000E-01   1.00800           0
     10341 MEMB     90       POPC     C28      CTL2    -0.180000       12.0110           0
     10342 MEMB     90       POPC     H8R      HAL2     0.900000E-01   1.00800           0
     10343 MEMB     90       POPC     H8S      HAL2     0.900000E-01   1.00800           0
     10344 MEMB     90       POPC     C29      CEL1    -0.150000       12.0110           0
     10345 MEMB     90       POPC     H91      HEL1     0.150000       1.00800           0
     10346 MEMB     90       POPC     C210     CEL1    -0.150000       12.0110           0
     10347 MEMB     90       POPC     H101     HEL1     0.150000       1.00800           0
     10348 MEMB     90       POPC     C211     CTL2    -0.180000       12.0110           0
     10349 MEMB     90       POPC     H11R     HAL2     0.900000E-01   1.00800           0
     10350 MEMB     90       POPC     H11S     HAL2     0.900000E-01   1.00800           0
     10351 MEMB     90       POPC     C212     CTL2    -0.180000       12.0110           0
     10352 MEMB     90       POPC     H12R     HAL2     0.900000E-01   1.00800           0
     10353 MEMB     90       POPC     H12S     HAL2     0.900000E-01   1.00800           0
     10354 MEMB     90       POPC     C213     CTL2    -0.180000       12.0110           0
     10355 MEMB     90       POPC     H13R     HAL2     0.900000E-01   1.00800           0
     10356 MEMB     90       POPC     H13S     HAL2     0.900000E-01   1.00800           0
     10357 MEMB     90       POPC     C214     CTL2    -0.180000       12.0110           0
     10358 MEMB     90       POPC     H14R     HAL2     0.900000E-01   1.00800           0
     10359 MEMB     90       POPC     H14S     HAL2     0.900000E-01   1.00800           0
     10360 MEMB     90       POPC     C215     CTL2    -0.180000       12.0110           0
     10361 MEMB     90       POPC     H15R     HAL2     0.900000E-01   1.00800           0
     10362 MEMB     90       POPC     H15S     HAL2     0.900000E-01   1.00800           0
     10363 MEMB     90       POPC     C216     CTL2    -0.180000       12.0110           0
     10364 MEMB     90       POPC     H16R     HAL2     0.900000E-01   1.00800           0
     10365 MEMB     90       POPC     H16S     HAL2     0.900000E-01   1.00800           0
     10366 MEMB     90       POPC     C217     CTL2    -0.180000       12.0110           0
     10367 MEMB     90       POPC     H17R     HAL2     0.900000E-01   1.00800           0
     10368 MEMB     90       POPC     H17S     HAL2     0.900000E-01   1.00800           0
     10369 MEMB     90       POPC     C218     CTL3    -0.270000       12.0110           0
     10370 MEMB     90       POPC     H18R     HAL3     0.900000E-01   1.00800           0
     10371 MEMB     90       POPC     H18S     HAL3     0.900000E-01   1.00800           0
     10372 MEMB     90       POPC     H18T     HAL3     0.900000E-01   1.00800           0
     10373 MEMB     90       POPC     C33      CTL2    -0.180000       12.0110           0
     10374 MEMB     90       POPC     H3X      HAL2     0.900000E-01   1.00800           0
     10375 MEMB     90       POPC     H3Y      HAL2     0.900000E-01   1.00800           0
     10376 MEMB     90       POPC     C34      CTL2    -0.180000       12.0110           0
     10377 MEMB     90       POPC     H4X      HAL2     0.900000E-01   1.00800           0
     10378 MEMB     90       POPC     H4Y      HAL2     0.900000E-01   1.00800           0
     10379 MEMB     90       POPC     C35      CTL2    -0.180000       12.0110           0
     10380 MEMB     90       POPC     H5X      HAL2     0.900000E-01   1.00800           0
     10381 MEMB     90       POPC     H5Y      HAL2     0.900000E-01   1.00800           0
     10382 MEMB     90       POPC     C36      CTL2    -0.180000       12.0110           0
     10383 MEMB     90       POPC     H6X      HAL2     0.900000E-01   1.00800           0
     10384 MEMB     90       POPC     H6Y      HAL2     0.900000E-01   1.00800           0
     10385 MEMB     90       POPC     C37      CTL2    -0.180000       12.0110           0
     10386 MEMB     90       POPC     H7X      HAL2     0.900000E-01   1.00800           0
     10387 MEMB     90       POPC     H7Y      HAL2     0.900000E-01   1.00800           0
     10388 MEMB     90       POPC     C38      CTL2    -0.180000       12.0110           0
     10389 MEMB     90       POPC     H8X      HAL2     0.900000E-01   1.00800           0
     10390 MEMB     90       POPC     H8Y      HAL2     0.900000E-01   1.00800           0
     10391 MEMB     90       POPC     C39      CTL2    -0.180000       12.0110           0
     10392 MEMB     90       POPC     H9X      HAL2     0.900000E-01   1.00800           0
     10393 MEMB     90       POPC     H9Y      HAL2     0.900000E-01   1.00800           0
     10394 MEMB     90       POPC     C310     CTL2    -0.180000       12.0110           0
     10395 MEMB     90       POPC     H10X     HAL2     0.900000E-01   1.00800           0
     10396 MEMB     90       POPC     H10Y     HAL2     0.900000E-01   1.00800           0
     10397 MEMB     90       POPC     C311     CTL2    -0.180000       12.0110           0
     10398 MEMB     90       POPC     H11X     HAL2     0.900000E-01   1.00800           0
     10399 MEMB     90       POPC     H11Y     HAL2     0.900000E-01   1.00800           0
     10400 MEMB     90       POPC     C312     CTL2    -0.180000       12.0110           0
     10401 MEMB     90       POPC     H12X     HAL2     0.900000E-01   1.00800           0
     10402 MEMB     90       POPC     H12Y     HAL2     0.900000E-01   1.00800           0
     10403 MEMB     90       POPC     C313     CTL2    -0.180000       12.0110           0
     10404 MEMB     90       POPC     H13X     HAL2     0.900000E-01   1.00800           0
     10405 MEMB     90       POPC     H13Y     HAL2     0.900000E-01   1.00800           0
     10406 MEMB     90       POPC     C314     CTL2    -0.180000       12.0110           0
     10407 MEMB     90       POPC     H14X     HAL2     0.900000E-01   1.00800           0
     10408 MEMB     90       POPC     H14Y     HAL2     0.900000E-01   1.00800           0
     10409 MEMB     90       POPC     C315     CTL2    -0.180000       12.0110           0
     10410 MEMB     90       POPC     H15X     HAL2     0.900000E-01   1.00800           0
     10411 MEMB     90       POPC     H15Y     HAL2     0.900000E-01   1.00800           0
     10412 MEMB     90       POPC     C316     CTL3    -0.270000       12.0110           0
     10413 MEMB     90       POPC     H16X     HAL3     0.900000E-01   1.00800           0
     10414 MEMB     90       POPC     H16Y     HAL3     0.900000E-01   1.00800           0
     10415 MEMB     90       POPC     H16Z     HAL3     0.900000E-01   1.00800           0
     10416 MEMB     91       CHL1     C3       CRL1     0.140000       12.0110           0
     10417 MEMB     91       CHL1     H3       HGA1     0.900000E-01   1.00800           0
     10418 MEMB     91       CHL1     O3       OHL     -0.660000       15.9994           0
     10419 MEMB     91       CHL1     H3'      HOL      0.430000       1.00800           0
     10420 MEMB     91       CHL1     C4       CRL2    -0.180000       12.0110           0
     10421 MEMB     91       CHL1     H4A      HGA2     0.900000E-01   1.00800           0
     10422 MEMB     91       CHL1     H4B      HGA2     0.900000E-01   1.00800           0
     10423 MEMB     91       CHL1     C5       CEL1      0.00000       12.0110           0
     10424 MEMB     91       CHL1     C6       CEL1    -0.150000       12.0110           0
     10425 MEMB     91       CHL1     H6       HEL1     0.150000       1.00800           0
     10426 MEMB     91       CHL1     C7       CRL2    -0.180000       12.0110           0
     10427 MEMB     91       CHL1     H7A      HGA2     0.900000E-01   1.00800           0
     10428 MEMB     91       CHL1     H7B      HGA2     0.900000E-01   1.00800           0
     10429 MEMB     91       CHL1     C8       CRL1    -0.900000E-01   12.0110           0
     10430 MEMB     91       CHL1     H8       HGA1     0.900000E-01   1.00800           0
     10431 MEMB     91       CHL1     C14      CRL1    -0.900000E-01   12.0110           0
     10432 MEMB     91       CHL1     H14      HGA1     0.900000E-01   1.00800           0
     10433 MEMB     91       CHL1     C15      CRL2    -0.180000       12.0110           0
     10434 MEMB     91       CHL1     H15A     HGA2     0.900000E-01   1.00800           0
     10435 MEMB     91       CHL1     H15B     HGA2     0.900000E-01   1.00800           0
     10436 MEMB     91       CHL1     C16      CRL2    -0.180000       12.0110           0
     10437 MEMB     91       CHL1     H16A     HGA2     0.900000E-01   1.00800           0
     10438 MEMB     91       CHL1     H16B     HGA2     0.900000E-01   1.00800           0
     10439 MEMB     91       CHL1     C17      CRL1    -0.900000E-01   12.0110           0
     10440 MEMB     91       CHL1     H17      HGA1     0.900000E-01   1.00800           0
     10441 MEMB     91       CHL1     C13      CRL1      0.00000       12.0110           0
     10442 MEMB     91       CHL1     C18      CTL3    -0.270000       12.0110           0
     10443 MEMB     91       CHL1     H18A     HAL3     0.900000E-01   1.00800           0
     10444 MEMB     91       CHL1     H18B     HAL3     0.900000E-01   1.00800           0
     10445 MEMB     91       CHL1     H18C     HAL3     0.900000E-01   1.00800           0
     10446 MEMB     91       CHL1     C12      CRL2    -0.180000       12.0110           0
     10447 MEMB     91       CHL1     H12A     HGA2     0.900000E-01   1.00800           0
     10448 MEMB     91       CHL1     H12B     HGA2     0.900000E-01   1.00800           0
     10449 MEMB     91       CHL1     C11      CRL2    -0.180000       12.0110           0
     10450 MEMB     91       CHL1     H11A     HGA2     0.900000E-01   1.00800           0
     10451 MEMB     91       CHL1     H11B     HGA2     0.900000E-01   1.00800           0
     10452 MEMB     91       CHL1     C9       CRL1    -0.900000E-01   12.0110           0
     10453 MEMB     91       CHL1     H9       HGA1     0.900000E-01   1.00800           0
     10454 MEMB     91       CHL1     C10      CRL1      0.00000       12.0110           0
     10455 MEMB     91       CHL1     C19      CTL3    -0.270000       12.0110           0
     10456 MEMB     91       CHL1     H19A     HAL3     0.900000E-01   1.00800           0
     10457 MEMB     91       CHL1     H19B     HAL3     0.900000E-01   1.00800           0
     10458 MEMB     91       CHL1     H19C     HAL3     0.900000E-01   1.00800           0
     10459 MEMB     91       CHL1     C1       CRL2    -0.180000       12.0110           0
     10460 MEMB     91       CHL1     H1A      HGA2     0.900000E-01   1.00800           0
     10461 MEMB     91       CHL1     H1B      HGA2     0.900000E-01   1.00800           0
     10462 MEMB     91       CHL1     C2       CRL2    -0.180000       12.0110           0
     10463 MEMB     91       CHL1     H2A      HGA2     0.900000E-01   1.00800           0
     10464 MEMB     91       CHL1     H2B      HGA2     0.900000E-01   1.00800           0
     10465 MEMB     91       CHL1     C20      CTL1    -0.900000E-01   12.0110           0
     10466 MEMB     91       CHL1     H20      HAL1     0.900000E-01   1.00800           0
     10467 MEMB     91       CHL1     C21      CTL3    -0.270000       12.0110           0
     10468 MEMB     91       CHL1     H21A     HAL3     0.900000E-01   1.00800           0
     10469 MEMB     91       CHL1     H21B     HAL3     0.900000E-01   1.00800           0
     10470 MEMB     91       CHL1     H21C     HAL3     0.900000E-01   1.00800           0
     10471 MEMB     91       CHL1     C22      CTL2    -0.180000       12.0110           0
     10472 MEMB     91       CHL1     H22A     HAL2     0.900000E-01   1.00800           0
     10473 MEMB     91       CHL1     H22B     HAL2     0.900000E-01   1.00800           0
     10474 MEMB     91       CHL1     C23      CTL2    -0.180000       12.0110           0
     10475 MEMB     91       CHL1     H23A     HAL2     0.900000E-01   1.00800           0
     10476 MEMB     91       CHL1     H23B     HAL2     0.900000E-01   1.00800           0
     10477 MEMB     91       CHL1     C24      CTL2    -0.180000       12.0110           0
     10478 MEMB     91       CHL1     H24A     HAL2     0.900000E-01   1.00800           0
     10479 MEMB     91       CHL1     H24B     HAL2     0.900000E-01   1.00800           0
     10480 MEMB     91       CHL1     C25      CTL1    -0.900000E-01   12.0110           0
     10481 MEMB     91       CHL1     H25      HAL1     0.900000E-01   1.00800           0
     10482 MEMB     91       CHL1     C26      CTL3    -0.270000       12.0110           0
     10483 MEMB     91       CHL1     H26A     HAL3     0.900000E-01   1.00800           0
     10484 MEMB     91       CHL1     H26B     HAL3     0.900000E-01   1.00800           0
     10485 MEMB     91       CHL1     H26C     HAL3     0.900000E-01   1.00800           0
     10486 MEMB     91       CHL1     C27      CTL3    -0.270000       12.0110           0
     10487 MEMB     91       CHL1     H27A     HAL3     0.900000E-01   1.00800           0
     10488 MEMB     91       CHL1     H27B     HAL3     0.900000E-01   1.00800           0
     10489 MEMB     91       CHL1     H27C     HAL3     0.900000E-01   1.00800           0
     10490 MEMB     92       SOPE     N        NH3L    -0.300000       14.0070           0
     10491 MEMB     92       SOPE     HN1      HCL      0.330000       1.00800           0
     10492 MEMB     92       SOPE     HN2      HCL      0.330000       1.00800           0
     10493 MEMB     92       SOPE     HN3      HCL      0.330000       1.00800           0
     10494 MEMB     92       SOPE     C12      CTL2     0.130000       12.0110           0
     10495 MEMB     92       SOPE     H12A     HAL2     0.900000E-01   1.00800           0
     10496 MEMB     92       SOPE     H12B     HAL2     0.900000E-01   1.00800           0
     10497 MEMB     92       SOPE     C11      CTL2    -0.800000E-01   12.0110           0
     10498 MEMB     92       SOPE     H11A     HAL2     0.900000E-01   1.00800           0
     10499 MEMB     92       SOPE     H11B     HAL2     0.900000E-01   1.00800           0
     10500 MEMB     92       SOPE     P        PL        1.50000       30.9740           0
     10501 MEMB     92       SOPE     O13      O2L     -0.780000       15.9994           0
     10502 MEMB     92       SOPE     O14      O2L     -0.780000       15.9994           0
     10503 MEMB     92       SOPE     O12      OSLP    -0.570000       15.9994           0
     10504 MEMB     92       SOPE     O11      OSLP    -0.570000       15.9994           0
     10505 MEMB     92       SOPE     C1       CTL2    -0.800000E-01   12.0110           0
     10506 MEMB     92       SOPE     HA       HAL2     0.900000E-01   1.00800           0
     10507 MEMB     92       SOPE     HB       HAL2     0.900000E-01   1.00800           0
     10508 MEMB     92       SOPE     C2       CTL1     0.170000       12.0110           0
     10509 MEMB     92       SOPE     HS       HAL1     0.900000E-01   1.00800           0
     10510 MEMB     92       SOPE     O21      OSL     -0.490000       15.9994           0
     10511 MEMB     92       SOPE     C21      CL       0.900000       12.0110           0
     10512 MEMB     92       SOPE     O22      OBL     -0.630000       15.9994           0
     10513 MEMB     92       SOPE     C22      CTL2    -0.220000       12.0110           0
     10514 MEMB     92       SOPE     H2R      HAL2     0.900000E-01   1.00800           0
     10515 MEMB     92       SOPE     H2S      HAL2     0.900000E-01   1.00800           0
     10516 MEMB     92       SOPE     C3       CTL2     0.800000E-01   12.0110           0
     10517 MEMB     92       SOPE     HX       HAL2     0.900000E-01   1.00800           0
     10518 MEMB     92       SOPE     HY       HAL2     0.900000E-01   1.00800           0
     10519 MEMB     92       SOPE     O31      OSL     -0.490000       15.9994           0
     10520 MEMB     92       SOPE     C31      CL       0.900000       12.0110           0
     10521 MEMB     92       SOPE     O32      OBL     -0.630000       15.9994           0
     10522 MEMB     92       SOPE     C32      CTL2    -0.220000       12.0110           0
     10523 MEMB     92       SOPE     H2X      HAL2     0.900000E-01   1.00800           0
     10524 MEMB     92       SOPE     H2Y      HAL2     0.900000E-01   1.00800           0
     10525 MEMB     92       SOPE     C23      CTL2    -0.180000       12.0110           0
     10526 MEMB     92       SOPE     H3R      HAL2     0.900000E-01   1.00800           0
     10527 MEMB     92       SOPE     H3S      HAL2     0.900000E-01   1.00800           0
     10528 MEMB     92       SOPE     C24      CTL2    -0.180000       12.0110           0
     10529 MEMB     92       SOPE     H4R      HAL2     0.900000E-01   1.00800           0
     10530 MEMB     92       SOPE     H4S      HAL2     0.900000E-01   1.00800           0
     10531 MEMB     92       SOPE     C25      CTL2    -0.180000       12.0110           0
     10532 MEMB     92       SOPE     H5R      HAL2     0.900000E-01   1.00800           0
     10533 MEMB     92       SOPE     H5S      HAL2     0.900000E-01   1.00800           0
     10534 MEMB     92       SOPE     C26      CTL2    -0.180000       12.0110           0
     10535 MEMB     92       SOPE     H6R      HAL2     0.900000E-01   1.00800           0
     10536 MEMB     92       SOPE     H6S      HAL2     0.900000E-01   1.00800           0
     10537 MEMB     92       SOPE     C27      CTL2    -0.180000       12.0110           0
     10538 MEMB     92       SOPE     H7R      HAL2     0.900000E-01   1.00800           0
     10539 MEMB     92       SOPE     H7S      HAL2     0.900000E-01   1.00800           0
     10540 MEMB     92       SOPE     C28      CTL2    -0.180000       12.0110           0
     10541 MEMB     92       SOPE     H8R      HAL2     0.900000E-01   1.00800           0
     10542 MEMB     92       SOPE     H8S      HAL2     0.900000E-01   1.00800           0
     10543 MEMB     92       SOPE     C29      CEL1    -0.150000       12.0110           0
     10544 MEMB     92       SOPE     H91      HEL1     0.150000       1.00800           0
     10545 MEMB     92       SOPE     C210     CEL1    -0.150000       12.0110           0
     10546 MEMB     92       SOPE     H101     HEL1     0.150000       1.00800           0
     10547 MEMB     92       SOPE     C211     CTL2    -0.180000       12.0110           0
     10548 MEMB     92       SOPE     H11R     HAL2     0.900000E-01   1.00800           0
     10549 MEMB     92       SOPE     H11S     HAL2     0.900000E-01   1.00800           0
     10550 MEMB     92       SOPE     C212     CTL2    -0.180000       12.0110           0
     10551 MEMB     92       SOPE     H12R     HAL2     0.900000E-01   1.00800           0
     10552 MEMB     92       SOPE     H12S     HAL2     0.900000E-01   1.00800           0
     10553 MEMB     92       SOPE     C213     CTL2    -0.180000       12.0110           0
     10554 MEMB     92       SOPE     H13R     HAL2     0.900000E-01   1.00800           0
     10555 MEMB     92       SOPE     H13S     HAL2     0.900000E-01   1.00800           0
     10556 MEMB     92       SOPE     C214     CTL2    -0.180000       12.0110           0
     10557 MEMB     92       SOPE     H14R     HAL2     0.900000E-01   1.00800           0
     10558 MEMB     92       SOPE     H14S     HAL2     0.900000E-01   1.00800           0
     10559 MEMB     92       SOPE     C215     CTL2    -0.180000       12.0110           0
     10560 MEMB     92       SOPE     H15R     HAL2     0.900000E-01   1.00800           0
     10561 MEMB     92       SOPE     H15S     HAL2     0.900000E-01   1.00800           0
     10562 MEMB     92       SOPE     C216     CTL2    -0.180000       12.0110           0
     10563 MEMB     92       SOPE     H16R     HAL2     0.900000E-01   1.00800           0
     10564 MEMB     92       SOPE     H16S     HAL2     0.900000E-01   1.00800           0
     10565 MEMB     92       SOPE     C217     CTL2    -0.180000       12.0110           0
     10566 MEMB     92       SOPE     H17R     HAL2     0.900000E-01   1.00800           0
     10567 MEMB     92       SOPE     H17S     HAL2     0.900000E-01   1.00800           0
     10568 MEMB     92       SOPE     C218     CTL3    -0.270000       12.0110           0
     10569 MEMB     92       SOPE     H18R     HAL3     0.900000E-01   1.00800           0
     10570 MEMB     92       SOPE     H18S     HAL3     0.900000E-01   1.00800           0
     10571 MEMB     92       SOPE     H18T     HAL3     0.900000E-01   1.00800           0
     10572 MEMB     92       SOPE     C33      CTL2    -0.180000       12.0110           0
     10573 MEMB     92       SOPE     H3X      HAL2     0.900000E-01   1.00800           0
     10574 MEMB     92       SOPE     H3Y      HAL2     0.900000E-01   1.00800           0
     10575 MEMB     92       SOPE     C34      CTL2    -0.180000       12.0110           0
     10576 MEMB     92       SOPE     H4X      HAL2     0.900000E-01   1.00800           0
     10577 MEMB     92       SOPE     H4Y      HAL2     0.900000E-01   1.00800           0
     10578 MEMB     92       SOPE     C35      CTL2    -0.180000       12.0110           0
     10579 MEMB     92       SOPE     H5X      HAL2     0.900000E-01   1.00800           0
     10580 MEMB     92       SOPE     H5Y      HAL2     0.900000E-01   1.00800           0
     10581 MEMB     92       SOPE     C36      CTL2    -0.180000       12.0110           0
     10582 MEMB     92       SOPE     H6X      HAL2     0.900000E-01   1.00800           0
     10583 MEMB     92       SOPE     H6Y      HAL2     0.900000E-01   1.00800           0
     10584 MEMB     92       SOPE     C37      CTL2    -0.180000       12.0110           0
     10585 MEMB     92       SOPE     H7X      HAL2     0.900000E-01   1.00800           0
     10586 MEMB     92       SOPE     H7Y      HAL2     0.900000E-01   1.00800           0
     10587 MEMB     92       SOPE     C38      CTL2    -0.180000       12.0110           0
     10588 MEMB     92       SOPE     H8X      HAL2     0.900000E-01   1.00800           0
     10589 MEMB     92       SOPE     H8Y      HAL2     0.900000E-01   1.00800           0
     10590 MEMB     92       SOPE     C39      CTL2    -0.180000       12.0110           0
     10591 MEMB     92       SOPE     H9X      HAL2     0.900000E-01   1.00800           0
     10592 MEMB     92       SOPE     H9Y      HAL2     0.900000E-01   1.00800           0
     10593 MEMB     92       SOPE     C310     CTL2    -0.180000       12.0110           0
     10594 MEMB     92       SOPE     H10X     HAL2     0.900000E-01   1.00800           0
     10595 MEMB     92       SOPE     H10Y     HAL2     0.900000E-01   1.00800           0
     10596 MEMB     92       SOPE     C311     CTL2    -0.180000       12.0110           0
     10597 MEMB     92       SOPE     H11X     HAL2     0.900000E-01   1.00800           0
     10598 MEMB     92       SOPE     H11Y     HAL2     0.900000E-01   1.00800           0
     10599 MEMB     92       SOPE     C312     CTL2    -0.180000       12.0110           0
     10600 MEMB     92       SOPE     H12X     HAL2     0.900000E-01   1.00800           0
     10601 MEMB     92       SOPE     H12Y     HAL2     0.900000E-01   1.00800           0
     10602 MEMB     92       SOPE     C313     CTL2    -0.180000       12.0110           0
     10603 MEMB     92       SOPE     H13X     HAL2     0.900000E-01   1.00800           0
     10604 MEMB     92       SOPE     H13Y     HAL2     0.900000E-01   1.00800           0
     10605 MEMB     92       SOPE     C314     CTL2    -0.180000       12.0110           0
     10606 MEMB     92       SOPE     H14X     HAL2     0.900000E-01   1.00800           0
     10607 MEMB     92       SOPE     H14Y     HAL2     0.900000E-01   1.00800           0
     10608 MEMB     92       SOPE     C315     CTL2    -0.180000       12.0110           0
     10609 MEMB     92       SOPE     H15X     HAL2     0.900000E-01   1.00800           0
     10610 MEMB     92       SOPE     H15Y     HAL2     0.900000E-01   1.00800           0
     10611 MEMB     92       SOPE     C316     CTL2    -0.180000       12.0110           0
     10612 MEMB     92       SOPE     H16X     HAL2     0.900000E-01   1.00800           0
     10613 MEMB     92       SOPE     H16Y     HAL2     0.900000E-01   1.00800           0
     10614 MEMB     92       SOPE     C317     CTL2    -0.180000       12.0110           0
     10615 MEMB     92       SOPE     H17X     HAL2     0.900000E-01   1.00800           0
     10616 MEMB     92       SOPE     H17Y     HAL2     0.900000E-01   1.00800           0
     10617 MEMB     92       SOPE     C318     CTL3    -0.270000       12.0110           0
     10618 MEMB     92       SOPE     H18X     HAL3     0.900000E-01   1.00800           0
     10619 MEMB     92       SOPE     H18Y     HAL3     0.900000E-01   1.00800           0
     10620 MEMB     92       SOPE     H18Z     HAL3     0.900000E-01   1.00800           0
     10621 MEMB     93       SAPE     N        NH3L    -0.300000       14.0070           0
     10622 MEMB     93       SAPE     HN1      HCL      0.330000       1.00800           0
     10623 MEMB     93       SAPE     HN2      HCL      0.330000       1.00800           0
     10624 MEMB     93       SAPE     HN3      HCL      0.330000       1.00800           0
     10625 MEMB     93       SAPE     C12      CTL2     0.130000       12.0110           0
     10626 MEMB     93       SAPE     H12A     HAL2     0.900000E-01   1.00800           0
     10627 MEMB     93       SAPE     H12B     HAL2     0.900000E-01   1.00800           0
     10628 MEMB     93       SAPE     C11      CTL2    -0.800000E-01   12.0110           0
     10629 MEMB     93       SAPE     H11A     HAL2     0.900000E-01   1.00800           0
     10630 MEMB     93       SAPE     H11B     HAL2     0.900000E-01   1.00800           0
     10631 MEMB     93       SAPE     P        PL        1.50000       30.9740           0
     10632 MEMB     93       SAPE     O13      O2L     -0.780000       15.9994           0
     10633 MEMB     93       SAPE     O14      O2L     -0.780000       15.9994           0
     10634 MEMB     93       SAPE     O12      OSLP    -0.570000       15.9994           0
     10635 MEMB     93       SAPE     O11      OSLP    -0.570000       15.9994           0
     10636 MEMB     93       SAPE     C1       CTL2    -0.800000E-01   12.0110           0
     10637 MEMB     93       SAPE     HA       HAL2     0.900000E-01   1.00800           0
     10638 MEMB     93       SAPE     HB       HAL2     0.900000E-01   1.00800           0
     10639 MEMB     93       SAPE     C2       CTL1     0.170000       12.0110           0
     10640 MEMB     93       SAPE     HS       HAL1     0.900000E-01   1.00800           0
     10641 MEMB     93       SAPE     O21      OSL     -0.490000       15.9994           0
     10642 MEMB     93       SAPE     C21      CL       0.900000       12.0110           0
     10643 MEMB     93       SAPE     O22      OBL     -0.630000       15.9994           0
     10644 MEMB     93       SAPE     C22      CTL2    -0.220000       12.0110           0
     10645 MEMB     93       SAPE     H2R      HAL2     0.900000E-01   1.00800           0
     10646 MEMB     93       SAPE     H2S      HAL2     0.900000E-01   1.00800           0
     10647 MEMB     93       SAPE     C3       CTL2     0.800000E-01   12.0110           0
     10648 MEMB     93       SAPE     HX       HAL2     0.900000E-01   1.00800           0
     10649 MEMB     93       SAPE     HY       HAL2     0.900000E-01   1.00800           0
     10650 MEMB     93       SAPE     O31      OSL     -0.490000       15.9994           0
     10651 MEMB     93       SAPE     C31      CL       0.900000       12.0110           0
     10652 MEMB     93       SAPE     O32      OBL     -0.630000       15.9994           0
     10653 MEMB     93       SAPE     C32      CTL2    -0.220000       12.0110           0
     10654 MEMB     93       SAPE     H2X      HAL2     0.900000E-01   1.00800           0
     10655 MEMB     93       SAPE     H2Y      HAL2     0.900000E-01   1.00800           0
     10656 MEMB     93       SAPE     C23      CTL2    -0.180000       12.0110           0
     10657 MEMB     93       SAPE     H3R      HAL2     0.900000E-01   1.00800           0
     10658 MEMB     93       SAPE     H3S      HAL2     0.900000E-01   1.00800           0
     10659 MEMB     93       SAPE     C24      CTL2    -0.180000       12.0110           0
     10660 MEMB     93       SAPE     H4R      HAL2     0.900000E-01   1.00800           0
     10661 MEMB     93       SAPE     H4S      HAL2     0.900000E-01   1.00800           0
     10662 MEMB     93       SAPE     C25      CEL1    -0.150000       12.0110           0
     10663 MEMB     93       SAPE     H5R      HEL1     0.150000       1.00800           0
     10664 MEMB     93       SAPE     C26      CEL1    -0.150000       12.0110           0
     10665 MEMB     93       SAPE     H6R      HEL1     0.150000       1.00800           0
     10666 MEMB     93       SAPE     C27      CTL2    -0.180000       12.0110           0
     10667 MEMB     93       SAPE     H7R      HAL2     0.900000E-01   1.00800           0
     10668 MEMB     93       SAPE     H7S      HAL2     0.900000E-01   1.00800           0
     10669 MEMB     93       SAPE     C28      CEL1    -0.150000       12.0110           0
     10670 MEMB     93       SAPE     H8R      HEL1     0.150000       1.00800           0
     10671 MEMB     93       SAPE     C29      CEL1    -0.150000       12.0110           0
     10672 MEMB     93       SAPE     H9R      HEL1     0.150000       1.00800           0
     10673 MEMB     93       SAPE     C210     CTL2    -0.180000       12.0110           0
     10674 MEMB     93       SAPE     H10R     HAL2     0.900000E-01   1.00800           0
     10675 MEMB     93       SAPE     H10S     HAL2     0.900000E-01   1.00800           0
     10676 MEMB     93       SAPE     C211     CEL1    -0.150000       12.0110           0
     10677 MEMB     93       SAPE     H11R     HEL1     0.150000       1.00800           0
     10678 MEMB     93       SAPE     C212     CEL1    -0.150000       12.0110           0
     10679 MEMB     93       SAPE     H12R     HEL1     0.150000       1.00800           0
     10680 MEMB     93       SAPE     C213     CTL2    -0.180000       12.0110           0
     10681 MEMB     93       SAPE     H13R     HAL2     0.900000E-01   1.00800           0
     10682 MEMB     93       SAPE     H13S     HAL2     0.900000E-01   1.00800           0
     10683 MEMB     93       SAPE     C214     CEL1    -0.150000       12.0110           0
     10684 MEMB     93       SAPE     H14R     HEL1     0.150000       1.00800           0
     10685 MEMB     93       SAPE     C215     CEL1    -0.150000       12.0110           0
     10686 MEMB     93       SAPE     H15R     HEL1     0.150000       1.00800           0
     10687 MEMB     93       SAPE     C216     CTL2    -0.180000       12.0110           0
     10688 MEMB     93       SAPE     H16R     HAL2     0.900000E-01   1.00800           0
     10689 MEMB     93       SAPE     H16S     HAL2     0.900000E-01   1.00800           0
     10690 MEMB     93       SAPE     C217     CTL2    -0.180000       12.0110           0
     10691 MEMB     93       SAPE     H17R     HAL2     0.900000E-01   1.00800           0
     10692 MEMB     93       SAPE     H17S     HAL2     0.900000E-01   1.00800           0
     10693 MEMB     93       SAPE     C218     CTL2    -0.180000       12.0110           0
     10694 MEMB     93       SAPE     H18R     HAL2     0.900000E-01   1.00800           0
     10695 MEMB     93       SAPE     H18S     HAL2     0.900000E-01   1.00800           0
     10696 MEMB     93       SAPE     C219     CTL2    -0.180000       12.0110           0
     10697 MEMB     93       SAPE     H19R     HAL2     0.900000E-01   1.00800           0
     10698 MEMB     93       SAPE     H19S     HAL2     0.900000E-01   1.00800           0
     10699 MEMB     93       SAPE     C220     CTL3    -0.270000       12.0110           0
     10700 MEMB     93       SAPE     H20R     HAL3     0.900000E-01   1.00800           0
     10701 MEMB     93       SAPE     H20S     HAL3     0.900000E-01   1.00800           0
     10702 MEMB     93       SAPE     H20T     HAL3     0.900000E-01   1.00800           0
     10703 MEMB     93       SAPE     C33      CTL2    -0.180000       12.0110           0
     10704 MEMB     93       SAPE     H3X      HAL2     0.900000E-01   1.00800           0
     10705 MEMB     93       SAPE     H3Y      HAL2     0.900000E-01   1.00800           0
     10706 MEMB     93       SAPE     C34      CTL2    -0.180000       12.0110           0
     10707 MEMB     93       SAPE     H4X      HAL2     0.900000E-01   1.00800           0
     10708 MEMB     93       SAPE     H4Y      HAL2     0.900000E-01   1.00800           0
     10709 MEMB     93       SAPE     C35      CTL2    -0.180000       12.0110           0
     10710 MEMB     93       SAPE     H5X      HAL2     0.900000E-01   1.00800           0
     10711 MEMB     93       SAPE     H5Y      HAL2     0.900000E-01   1.00800           0
     10712 MEMB     93       SAPE     C36      CTL2    -0.180000       12.0110           0
     10713 MEMB     93       SAPE     H6X      HAL2     0.900000E-01   1.00800           0
     10714 MEMB     93       SAPE     H6Y      HAL2     0.900000E-01   1.00800           0
     10715 MEMB     93       SAPE     C37      CTL2    -0.180000       12.0110           0
     10716 MEMB     93       SAPE     H7X      HAL2     0.900000E-01   1.00800           0
     10717 MEMB     93       SAPE     H7Y      HAL2     0.900000E-01   1.00800           0
     10718 MEMB     93       SAPE     C38      CTL2    -0.180000       12.0110           0
     10719 MEMB     93       SAPE     H8X      HAL2     0.900000E-01   1.00800           0
     10720 MEMB     93       SAPE     H8Y      HAL2     0.900000E-01   1.00800           0
     10721 MEMB     93       SAPE     C39      CTL2    -0.180000       12.0110           0
     10722 MEMB     93       SAPE     H9X      HAL2     0.900000E-01   1.00800           0
     10723 MEMB     93       SAPE     H9Y      HAL2     0.900000E-01   1.00800           0
     10724 MEMB     93       SAPE     C310     CTL2    -0.180000       12.0110           0
     10725 MEMB     93       SAPE     H10X     HAL2     0.900000E-01   1.00800           0
     10726 MEMB     93       SAPE     H10Y     HAL2     0.900000E-01   1.00800           0
     10727 MEMB     93       SAPE     C311     CTL2    -0.180000       12.0110           0
     10728 MEMB     93       SAPE     H11X     HAL2     0.900000E-01   1.00800           0
     10729 MEMB     93       SAPE     H11Y     HAL2     0.900000E-01   1.00800           0
     10730 MEMB     93       SAPE     C312     CTL2    -0.180000       12.0110           0
     10731 MEMB     93       SAPE     H12X     HAL2     0.900000E-01   1.00800           0
     10732 MEMB     93       SAPE     H12Y     HAL2     0.900000E-01   1.00800           0
     10733 MEMB     93       SAPE     C313     CTL2    -0.180000       12.0110           0
     10734 MEMB     93       SAPE     H13X     HAL2     0.900000E-01   1.00800           0
     10735 MEMB     93       SAPE     H13Y     HAL2     0.900000E-01   1.00800           0
     10736 MEMB     93       SAPE     C314     CTL2    -0.180000       12.0110           0
     10737 MEMB     93       SAPE     H14X     HAL2     0.900000E-01   1.00800           0
     10738 MEMB     93       SAPE     H14Y     HAL2     0.900000E-01   1.00800           0
     10739 MEMB     93       SAPE     C315     CTL2    -0.180000       12.0110           0
     10740 MEMB     93       SAPE     H15X     HAL2     0.900000E-01   1.00800           0
     10741 MEMB     93       SAPE     H15Y     HAL2     0.900000E-01   1.00800           0
     10742 MEMB     93       SAPE     C316     CTL2    -0.180000       12.0110           0
     10743 MEMB     93       SAPE     H16X     HAL2     0.900000E-01   1.00800           0
     10744 MEMB     93       SAPE     H16Y     HAL2     0.900000E-01   1.00800           0
     10745 MEMB     93       SAPE     C317     CTL2    -0.180000       12.0110           0
     10746 MEMB     93       SAPE     H17X     HAL2     0.900000E-01   1.00800           0
     10747 MEMB     93       SAPE     H17Y     HAL2     0.900000E-01   1.00800           0
     10748 MEMB     93       SAPE     C318     CTL3    -0.270000       12.0110           0
     10749 MEMB     93       SAPE     H18X     HAL3     0.900000E-01   1.00800           0
     10750 MEMB     93       SAPE     H18Y     HAL3     0.900000E-01   1.00800           0
     10751 MEMB     93       SAPE     H18Z     HAL3     0.900000E-01   1.00800           0
     10752 MEMB     94       SLPC     N        NTL     -0.600000       14.0070           0
     10753 MEMB     94       SLPC     C13      CTL5    -0.350000       12.0110           0
     10754 MEMB     94       SLPC     H13A     HL       0.250000       1.00800           0
     10755 MEMB     94       SLPC     H13B     HL       0.250000       1.00800           0
     10756 MEMB     94       SLPC     H13C     HL       0.250000       1.00800           0
     10757 MEMB     94       SLPC     C14      CTL5    -0.350000       12.0110           0
     10758 MEMB     94       SLPC     H14A     HL       0.250000       1.00800           0
     10759 MEMB     94       SLPC     H14B     HL       0.250000       1.00800           0
     10760 MEMB     94       SLPC     H14C     HL       0.250000       1.00800           0
     10761 MEMB     94       SLPC     C15      CTL5    -0.350000       12.0110           0
     10762 MEMB     94       SLPC     H15A     HL       0.250000       1.00800           0
     10763 MEMB     94       SLPC     H15B     HL       0.250000       1.00800           0
     10764 MEMB     94       SLPC     H15C     HL       0.250000       1.00800           0
     10765 MEMB     94       SLPC     C12      CTL2    -0.100000       12.0110           0
     10766 MEMB     94       SLPC     H12A     HL       0.250000       1.00800           0
     10767 MEMB     94       SLPC     H12B     HL       0.250000       1.00800           0
     10768 MEMB     94       SLPC     C11      CTL2    -0.800000E-01   12.0110           0
     10769 MEMB     94       SLPC     H11A     HAL2     0.900000E-01   1.00800           0
     10770 MEMB     94       SLPC     H11B     HAL2     0.900000E-01   1.00800           0
     10771 MEMB     94       SLPC     P        PL        1.50000       30.9740           0
     10772 MEMB     94       SLPC     O13      O2L     -0.780000       15.9994           0
     10773 MEMB     94       SLPC     O14      O2L     -0.780000       15.9994           0
     10774 MEMB     94       SLPC     O12      OSLP    -0.570000       15.9994           0
     10775 MEMB     94       SLPC     O11      OSLP    -0.570000       15.9994           0
     10776 MEMB     94       SLPC     C1       CTL2    -0.800000E-01   12.0110           0
     10777 MEMB     94       SLPC     HA       HAL2     0.900000E-01   1.00800           0
     10778 MEMB     94       SLPC     HB       HAL2     0.900000E-01   1.00800           0
     10779 MEMB     94       SLPC     C2       CTL1     0.170000       12.0110           0
     10780 MEMB     94       SLPC     HS       HAL1     0.900000E-01   1.00800           0
     10781 MEMB     94       SLPC     O21      OSL     -0.490000       15.9994           0
     10782 MEMB     94       SLPC     C21      CL       0.900000       12.0110           0
     10783 MEMB     94       SLPC     O22      OBL     -0.630000       15.9994           0
     10784 MEMB     94       SLPC     C22      CTL2    -0.220000       12.0110           0
     10785 MEMB     94       SLPC     H2R      HAL2     0.900000E-01   1.00800           0
     10786 MEMB     94       SLPC     H2S      HAL2     0.900000E-01   1.00800           0
     10787 MEMB     94       SLPC     C3       CTL2     0.800000E-01   12.0110           0
     10788 MEMB     94       SLPC     HX       HAL2     0.900000E-01   1.00800           0
     10789 MEMB     94       SLPC     HY       HAL2     0.900000E-01   1.00800           0
     10790 MEMB     94       SLPC     O31      OSL     -0.490000       15.9994           0
     10791 MEMB     94       SLPC     C31      CL       0.900000       12.0110           0
     10792 MEMB     94       SLPC     O32      OBL     -0.630000       15.9994           0
     10793 MEMB     94       SLPC     C32      CTL2    -0.220000       12.0110           0
     10794 MEMB     94       SLPC     H2X      HAL2     0.900000E-01   1.00800           0
     10795 MEMB     94       SLPC     H2Y      HAL2     0.900000E-01   1.00800           0
     10796 MEMB     94       SLPC     C23      CTL2    -0.180000       12.0110           0
     10797 MEMB     94       SLPC     H3R      HAL2     0.900000E-01   1.00800           0
     10798 MEMB     94       SLPC     H3S      HAL2     0.900000E-01   1.00800           0
     10799 MEMB     94       SLPC     C24      CTL2    -0.180000       12.0110           0
     10800 MEMB     94       SLPC     H4R      HAL2     0.900000E-01   1.00800           0
     10801 MEMB     94       SLPC     H4S      HAL2     0.900000E-01   1.00800           0
     10802 MEMB     94       SLPC     C25      CTL2    -0.180000       12.0110           0
     10803 MEMB     94       SLPC     H5R      HAL2     0.900000E-01   1.00800           0
     10804 MEMB     94       SLPC     H5S      HAL2     0.900000E-01   1.00800           0
     10805 MEMB     94       SLPC     C26      CTL2    -0.180000       12.0110           0
     10806 MEMB     94       SLPC     H6R      HAL2     0.900000E-01   1.00800           0
     10807 MEMB     94       SLPC     H6S      HAL2     0.900000E-01   1.00800           0
     10808 MEMB     94       SLPC     C27      CTL2    -0.180000       12.0110           0
     10809 MEMB     94       SLPC     H7R      HAL2     0.900000E-01   1.00800           0
     10810 MEMB     94       SLPC     H7S      HAL2     0.900000E-01   1.00800           0
     10811 MEMB     94       SLPC     C28      CTL2    -0.180000       12.0110           0
     10812 MEMB     94       SLPC     H8R      HAL2     0.900000E-01   1.00800           0
     10813 MEMB     94       SLPC     H8S      HAL2     0.900000E-01   1.00800           0
     10814 MEMB     94       SLPC     C29      CEL1    -0.150000       12.0110           0
     10815 MEMB     94       SLPC     H9R      HEL1     0.150000       1.00800           0
     10816 MEMB     94       SLPC     C210     CEL1    -0.150000       12.0110           0
     10817 MEMB     94       SLPC     H10R     HEL1     0.150000       1.00800           0
     10818 MEMB     94       SLPC     C211     CTL2    -0.180000       12.0110           0
     10819 MEMB     94       SLPC     H11R     HAL2     0.900000E-01   1.00800           0
     10820 MEMB     94       SLPC     H11S     HAL2     0.900000E-01   1.00800           0
     10821 MEMB     94       SLPC     C212     CEL1    -0.150000       12.0110           0
     10822 MEMB     94       SLPC     H12R     HEL1     0.150000       1.00800           0
     10823 MEMB     94       SLPC     C213     CEL1    -0.150000       12.0110           0
     10824 MEMB     94       SLPC     H13R     HEL1     0.150000       1.00800           0
     10825 MEMB     94       SLPC     C214     CTL2    -0.180000       12.0110           0
     10826 MEMB     94       SLPC     H14R     HAL2     0.900000E-01   1.00800           0
     10827 MEMB     94       SLPC     H14S     HAL2     0.900000E-01   1.00800           0
     10828 MEMB     94       SLPC     C215     CTL2    -0.180000       12.0110           0
     10829 MEMB     94       SLPC     H15R     HAL2     0.900000E-01   1.00800           0
     10830 MEMB     94       SLPC     H15S     HAL2     0.900000E-01   1.00800           0
     10831 MEMB     94       SLPC     C216     CTL2    -0.180000       12.0110           0
     10832 MEMB     94       SLPC     H16R     HAL2     0.900000E-01   1.00800           0
     10833 MEMB     94       SLPC     H16S     HAL2     0.900000E-01   1.00800           0
     10834 MEMB     94       SLPC     C217     CTL2    -0.180000       12.0110           0
     10835 MEMB     94       SLPC     H17R     HAL2     0.900000E-01   1.00800           0
     10836 MEMB     94       SLPC     H17S     HAL2     0.900000E-01   1.00800           0
     10837 MEMB     94       SLPC     C218     CTL3    -0.270000       12.0110           0
     10838 MEMB     94       SLPC     H18R     HAL3     0.900000E-01   1.00800           0
     10839 MEMB     94       SLPC     H18S     HAL3     0.900000E-01   1.00800           0
     10840 MEMB     94       SLPC     H18T     HAL3     0.900000E-01   1.00800           0
     10841 MEMB     94       SLPC     C33      CTL2    -0.180000       12.0110           0
     10842 MEMB     94       SLPC     H3X      HAL2     0.900000E-01   1.00800           0
     10843 MEMB     94       SLPC     H3Y      HAL2     0.900000E-01   1.00800           0
     10844 MEMB     94       SLPC     C34      CTL2    -0.180000       12.0110           0
     10845 MEMB     94       SLPC     H4X      HAL2     0.900000E-01   1.00800           0
     10846 MEMB     94       SLPC     H4Y      HAL2     0.900000E-01   1.00800           0
     10847 MEMB     94       SLPC     C35      CTL2    -0.180000       12.0110           0
     10848 MEMB     94       SLPC     H5X      HAL2     0.900000E-01   1.00800           0
     10849 MEMB     94       SLPC     H5Y      HAL2     0.900000E-01   1.00800           0
     10850 MEMB     94       SLPC     C36      CTL2    -0.180000       12.0110           0
     10851 MEMB     94       SLPC     H6X      HAL2     0.900000E-01   1.00800           0
     10852 MEMB     94       SLPC     H6Y      HAL2     0.900000E-01   1.00800           0
     10853 MEMB     94       SLPC     C37      CTL2    -0.180000       12.0110           0
     10854 MEMB     94       SLPC     H7X      HAL2     0.900000E-01   1.00800           0
     10855 MEMB     94       SLPC     H7Y      HAL2     0.900000E-01   1.00800           0
     10856 MEMB     94       SLPC     C38      CTL2    -0.180000       12.0110           0
     10857 MEMB     94       SLPC     H8X      HAL2     0.900000E-01   1.00800           0
     10858 MEMB     94       SLPC     H8Y      HAL2     0.900000E-01   1.00800           0
     10859 MEMB     94       SLPC     C39      CTL2    -0.180000       12.0110           0
     10860 MEMB     94       SLPC     H9X      HAL2     0.900000E-01   1.00800           0
     10861 MEMB     94       SLPC     H9Y      HAL2     0.900000E-01   1.00800           0
     10862 MEMB     94       SLPC     C310     CTL2    -0.180000       12.0110           0
     10863 MEMB     94       SLPC     H10X     HAL2     0.900000E-01   1.00800           0
     10864 MEMB     94       SLPC     H10Y     HAL2     0.900000E-01   1.00800           0
     10865 MEMB     94       SLPC     C311     CTL2    -0.180000       12.0110           0
     10866 MEMB     94       SLPC     H11X     HAL2     0.900000E-01   1.00800           0
     10867 MEMB     94       SLPC     H11Y     HAL2     0.900000E-01   1.00800           0
     10868 MEMB     94       SLPC     C312     CTL2    -0.180000       12.0110           0
     10869 MEMB     94       SLPC     H12X     HAL2     0.900000E-01   1.00800           0
     10870 MEMB     94       SLPC     H12Y     HAL2     0.900000E-01   1.00800           0
     10871 MEMB     94       SLPC     C313     CTL2    -0.180000       12.0110           0
     10872 MEMB     94       SLPC     H13X     HAL2     0.900000E-01   1.00800           0
     10873 MEMB     94       SLPC     H13Y     HAL2     0.900000E-01   1.00800           0
     10874 MEMB     94       SLPC     C314     CTL2    -0.180000       12.0110           0
     10875 MEMB     94       SLPC     H14X     HAL2     0.900000E-01   1.00800           0
     10876 MEMB     94       SLPC     H14Y     HAL2     0.900000E-01   1.00800           0
     10877 MEMB     94       SLPC     C315     CTL2    -0.180000       12.0110           0
     10878 MEMB     94       SLPC     H15X     HAL2     0.900000E-01   1.00800           0
     10879 MEMB     94       SLPC     H15Y     HAL2     0.900000E-01   1.00800           0
     10880 MEMB     94       SLPC     C316     CTL2    -0.180000       12.0110           0
     10881 MEMB     94       SLPC     H16X     HAL2     0.900000E-01   1.00800           0
     10882 MEMB     94       SLPC     H16Y     HAL2     0.900000E-01   1.00800           0
     10883 MEMB     94       SLPC     C317     CTL2    -0.180000       12.0110           0
     10884 MEMB     94       SLPC     H17X     HAL2     0.900000E-01   1.00800           0
     10885 MEMB     94       SLPC     H17Y     HAL2     0.900000E-01   1.00800           0
     10886 MEMB     94       SLPC     C318     CTL3    -0.270000       12.0110           0
     10887 MEMB     94       SLPC     H18X     HAL3     0.900000E-01   1.00800           0
     10888 MEMB     94       SLPC     H18Y     HAL3     0.900000E-01   1.00800           0
     10889 MEMB     94       SLPC     H18Z     HAL3     0.900000E-01   1.00800           0
     10890 MEMB     95       SAPC     N        NTL     -0.600000       14.0070           0
     10891 MEMB     95       SAPC     C12      CTL2    -0.100000       12.0110           0
     10892 MEMB     95       SAPC     H12A     HL       0.250000       1.00800           0
     10893 MEMB     95       SAPC     H12B     HL       0.250000       1.00800           0
     10894 MEMB     95       SAPC     C13      CTL5    -0.350000       12.0110           0
     10895 MEMB     95       SAPC     H13A     HL       0.250000       1.00800           0
     10896 MEMB     95       SAPC     H13B     HL       0.250000       1.00800           0
     10897 MEMB     95       SAPC     H13C     HL       0.250000       1.00800           0
     10898 MEMB     95       SAPC     C14      CTL5    -0.350000       12.0110           0
     10899 MEMB     95       SAPC     H14A     HL       0.250000       1.00800           0
     10900 MEMB     95       SAPC     H14B     HL       0.250000       1.00800           0
     10901 MEMB     95       SAPC     H14C     HL       0.250000       1.00800           0
     10902 MEMB     95       SAPC     C15      CTL5    -0.350000       12.0110           0
     10903 MEMB     95       SAPC     H15A     HL       0.250000       1.00800           0
     10904 MEMB     95       SAPC     H15B     HL       0.250000       1.00800           0
     10905 MEMB     95       SAPC     H15C     HL       0.250000       1.00800           0
     10906 MEMB     95       SAPC     C11      CTL2    -0.800000E-01   12.0110           0
     10907 MEMB     95       SAPC     H11A     HAL2     0.900000E-01   1.00800           0
     10908 MEMB     95       SAPC     H11B     HAL2     0.900000E-01   1.00800           0
     10909 MEMB     95       SAPC     P        PL        1.50000       30.9740           0
     10910 MEMB     95       SAPC     O13      O2L     -0.780000       15.9994           0
     10911 MEMB     95       SAPC     O14      O2L     -0.780000       15.9994           0
     10912 MEMB     95       SAPC     O12      OSLP    -0.570000       15.9994           0
     10913 MEMB     95       SAPC     O11      OSLP    -0.570000       15.9994           0
     10914 MEMB     95       SAPC     C1       CTL2    -0.800000E-01   12.0110           0
     10915 MEMB     95       SAPC     HA       HAL2     0.900000E-01   1.00800           0
     10916 MEMB     95       SAPC     HB       HAL2     0.900000E-01   1.00800           0
     10917 MEMB     95       SAPC     C2       CTL1     0.170000       12.0110           0
     10918 MEMB     95       SAPC     HS       HAL1     0.900000E-01   1.00800           0
     10919 MEMB     95       SAPC     O21      OSL     -0.490000       15.9994           0
     10920 MEMB     95       SAPC     C21      CL       0.900000       12.0110           0
     10921 MEMB     95       SAPC     O22      OBL     -0.630000       15.9994           0
     10922 MEMB     95       SAPC     C22      CTL2    -0.220000       12.0110           0
     10923 MEMB     95       SAPC     H2R      HAL2     0.900000E-01   1.00800           0
     10924 MEMB     95       SAPC     H2S      HAL2     0.900000E-01   1.00800           0
     10925 MEMB     95       SAPC     C3       CTL2     0.800000E-01   12.0110           0
     10926 MEMB     95       SAPC     HX       HAL2     0.900000E-01   1.00800           0
     10927 MEMB     95       SAPC     HY       HAL2     0.900000E-01   1.00800           0
     10928 MEMB     95       SAPC     O31      OSL     -0.490000       15.9994           0
     10929 MEMB     95       SAPC     C31      CL       0.900000       12.0110           0
     10930 MEMB     95       SAPC     O32      OBL     -0.630000       15.9994           0
     10931 MEMB     95       SAPC     C32      CTL2    -0.220000       12.0110           0
     10932 MEMB     95       SAPC     H2X      HAL2     0.900000E-01   1.00800           0
     10933 MEMB     95       SAPC     H2Y      HAL2     0.900000E-01   1.00800           0
     10934 MEMB     95       SAPC     C23      CTL2    -0.180000       12.0110           0
     10935 MEMB     95       SAPC     H3R      HAL2     0.900000E-01   1.00800           0
     10936 MEMB     95       SAPC     H3S      HAL2     0.900000E-01   1.00800           0
     10937 MEMB     95       SAPC     C24      CTL2    -0.180000       12.0110           0
     10938 MEMB     95       SAPC     H4R      HAL2     0.900000E-01   1.00800           0
     10939 MEMB     95       SAPC     H4S      HAL2     0.900000E-01   1.00800           0
     10940 MEMB     95       SAPC     C25      CEL1    -0.150000       12.0110           0
     10941 MEMB     95       SAPC     H5R      HEL1     0.150000       1.00800           0
     10942 MEMB     95       SAPC     C26      CEL1    -0.150000       12.0110           0
     10943 MEMB     95       SAPC     H6R      HEL1     0.150000       1.00800           0
     10944 MEMB     95       SAPC     C27      CTL2    -0.180000       12.0110           0
     10945 MEMB     95       SAPC     H7R      HAL2     0.900000E-01   1.00800           0
     10946 MEMB     95       SAPC     H7S      HAL2     0.900000E-01   1.00800           0
     10947 MEMB     95       SAPC     C28      CEL1    -0.150000       12.0110           0
     10948 MEMB     95       SAPC     H8R      HEL1     0.150000       1.00800           0
     10949 MEMB     95       SAPC     C29      CEL1    -0.150000       12.0110           0
     10950 MEMB     95       SAPC     H9R      HEL1     0.150000       1.00800           0
     10951 MEMB     95       SAPC     C210     CTL2    -0.180000       12.0110           0
     10952 MEMB     95       SAPC     H10R     HAL2     0.900000E-01   1.00800           0
     10953 MEMB     95       SAPC     H10S     HAL2     0.900000E-01   1.00800           0
     10954 MEMB     95       SAPC     C211     CEL1    -0.150000       12.0110           0
     10955 MEMB     95       SAPC     H11R     HEL1     0.150000       1.00800           0
     10956 MEMB     95       SAPC     C212     CEL1    -0.150000       12.0110           0
     10957 MEMB     95       SAPC     H12R     HEL1     0.150000       1.00800           0
     10958 MEMB     95       SAPC     C213     CTL2    -0.180000       12.0110           0
     10959 MEMB     95       SAPC     H13R     HAL2     0.900000E-01   1.00800           0
     10960 MEMB     95       SAPC     H13S     HAL2     0.900000E-01   1.00800           0
     10961 MEMB     95       SAPC     C214     CEL1    -0.150000       12.0110           0
     10962 MEMB     95       SAPC     H14R     HEL1     0.150000       1.00800           0
     10963 MEMB     95       SAPC     C215     CEL1    -0.150000       12.0110           0
     10964 MEMB     95       SAPC     H15R     HEL1     0.150000       1.00800           0
     10965 MEMB     95       SAPC     C216     CTL2    -0.180000       12.0110           0
     10966 MEMB     95       SAPC     H16R     HAL2     0.900000E-01   1.00800           0
     10967 MEMB     95       SAPC     H16S     HAL2     0.900000E-01   1.00800           0
     10968 MEMB     95       SAPC     C217     CTL2    -0.180000       12.0110           0
     10969 MEMB     95       SAPC     H17R     HAL2     0.900000E-01   1.00800           0
     10970 MEMB     95       SAPC     H17S     HAL2     0.900000E-01   1.00800           0
     10971 MEMB     95       SAPC     C218     CTL2    -0.270000       12.0110           0
     10972 MEMB     95       SAPC     H18R     HAL2     0.900000E-01   1.00800           0
     10973 MEMB     95       SAPC     H18S     HAL2     0.900000E-01   1.00800           0
     10974 MEMB     95       SAPC     C219     CTL2    -0.180000       12.0110           0
     10975 MEMB     95       SAPC     H19R     HAL2     0.900000E-01   1.00800           0
     10976 MEMB     95       SAPC     H19S     HAL2     0.900000E-01   1.00800           0
     10977 MEMB     95       SAPC     C220     CTL3    -0.180000       12.0110           0
     10978 MEMB     95       SAPC     H20R     HAL3     0.900000E-01   1.00800           0
     10979 MEMB     95       SAPC     H20S     HAL3     0.900000E-01   1.00800           0
     10980 MEMB     95       SAPC     H20T     HAL3     0.900000E-01   1.00800           0
     10981 MEMB     95       SAPC     C33      CTL2    -0.180000       12.0110           0
     10982 MEMB     95       SAPC     H3X      HAL2     0.900000E-01   1.00800           0
     10983 MEMB     95       SAPC     H3Y      HAL2     0.900000E-01   1.00800           0
     10984 MEMB     95       SAPC     C34      CTL2    -0.180000       12.0110           0
     10985 MEMB     95       SAPC     H4X      HAL2     0.900000E-01   1.00800           0
     10986 MEMB     95       SAPC     H4Y      HAL2     0.900000E-01   1.00800           0
     10987 MEMB     95       SAPC     C35      CTL2    -0.180000       12.0110           0
     10988 MEMB     95       SAPC     H5X      HAL2     0.900000E-01   1.00800           0
     10989 MEMB     95       SAPC     H5Y      HAL2     0.900000E-01   1.00800           0
     10990 MEMB     95       SAPC     C36      CTL2    -0.180000       12.0110           0
     10991 MEMB     95       SAPC     H6X      HAL2     0.900000E-01   1.00800           0
     10992 MEMB     95       SAPC     H6Y      HAL2     0.900000E-01   1.00800           0
     10993 MEMB     95       SAPC     C37      CTL2    -0.180000       12.0110           0
     10994 MEMB     95       SAPC     H7X      HAL2     0.900000E-01   1.00800           0
     10995 MEMB     95       SAPC     H7Y      HAL2     0.900000E-01   1.00800           0
     10996 MEMB     95       SAPC     C38      CTL2    -0.180000       12.0110           0
     10997 MEMB     95       SAPC     H8X      HAL2     0.900000E-01   1.00800           0
     10998 MEMB     95       SAPC     H8Y      HAL2     0.900000E-01   1.00800           0
     10999 MEMB     95       SAPC     C39      CTL2    -0.180000       12.0110           0
     11000 MEMB     95       SAPC     H9X      HAL2     0.900000E-01   1.00800           0
     11001 MEMB     95       SAPC     H9Y      HAL2     0.900000E-01   1.00800           0
     11002 MEMB     95       SAPC     C310     CTL2    -0.180000       12.0110           0
     11003 MEMB     95       SAPC     H10X     HAL2     0.900000E-01   1.00800           0
     11004 MEMB     95       SAPC     H10Y     HAL2     0.900000E-01   1.00800           0
     11005 MEMB     95       SAPC     C311     CTL2    -0.180000       12.0110           0
     11006 MEMB     95       SAPC     H11X     HAL2     0.900000E-01   1.00800           0
     11007 MEMB     95       SAPC     H11Y     HAL2     0.900000E-01   1.00800           0
     11008 MEMB     95       SAPC     C312     CTL2    -0.180000       12.0110           0
     11009 MEMB     95       SAPC     H12X     HAL2     0.900000E-01   1.00800           0
     11010 MEMB     95       SAPC     H12Y     HAL2     0.900000E-01   1.00800           0
     11011 MEMB     95       SAPC     C313     CTL2    -0.180000       12.0110           0
     11012 MEMB     95       SAPC     H13X     HAL2     0.900000E-01   1.00800           0
     11013 MEMB     95       SAPC     H13Y     HAL2     0.900000E-01   1.00800           0
     11014 MEMB     95       SAPC     C314     CTL2    -0.180000       12.0110           0
     11015 MEMB     95       SAPC     H14X     HAL2     0.900000E-01   1.00800           0
     11016 MEMB     95       SAPC     H14Y     HAL2     0.900000E-01   1.00800           0
     11017 MEMB     95       SAPC     C315     CTL2    -0.180000       12.0110           0
     11018 MEMB     95       SAPC     H15X     HAL2     0.900000E-01   1.00800           0
     11019 MEMB     95       SAPC     H15Y     HAL2     0.900000E-01   1.00800           0
     11020 MEMB     95       SAPC     C316     CTL2    -0.180000       12.0110           0
     11021 MEMB     95       SAPC     H16X     HAL2     0.900000E-01   1.00800           0
     11022 MEMB     95       SAPC     H16Y     HAL2     0.900000E-01   1.00800           0
     11023 MEMB     95       SAPC     C317     CTL2    -0.180000       12.0110           0
     11024 MEMB     95       SAPC     H17X     HAL2     0.900000E-01   1.00800           0
     11025 MEMB     95       SAPC     H17Y     HAL2     0.900000E-01   1.00800           0
     11026 MEMB     95       SAPC     C318     CTL3    -0.270000       12.0110           0
     11027 MEMB     95       SAPC     H18X     HAL3     0.900000E-01   1.00800           0
     11028 MEMB     95       SAPC     H18Y     HAL3     0.900000E-01   1.00800           0
     11029 MEMB     95       SAPC     H18Z     HAL3     0.900000E-01   1.00800           0
     11030 MEMB     96       OSM      N        NTL     -0.600000       14.0070           0
     11031 MEMB     96       OSM      C15      CTL5    -0.350000       12.0110           0
     11032 MEMB     96       OSM      H15A     HL       0.250000       1.00800           0
     11033 MEMB     96       OSM      H15B     HL       0.250000       1.00800           0
     11034 MEMB     96       OSM      H15C     HL       0.250000       1.00800           0
     11035 MEMB     96       OSM      C14      CTL5    -0.350000       12.0110           0
     11036 MEMB     96       OSM      H14A     HL       0.250000       1.00800           0
     11037 MEMB     96       OSM      H14B     HL       0.250000       1.00800           0
     11038 MEMB     96       OSM      H14C     HL       0.250000       1.00800           0
     11039 MEMB     96       OSM      C13      CTL5    -0.350000       12.0110           0
     11040 MEMB     96       OSM      H13A     HL       0.250000       1.00800           0
     11041 MEMB     96       OSM      H13B     HL       0.250000       1.00800           0
     11042 MEMB     96       OSM      H13C     HL       0.250000       1.00800           0
     11043 MEMB     96       OSM      C12      CTL2    -0.100000       12.0110           0
     11044 MEMB     96       OSM      H12A     HL       0.250000       1.00800           0
     11045 MEMB     96       OSM      H12B     HL       0.250000       1.00800           0
     11046 MEMB     96       OSM      C11      CTL2    -0.800000E-01   12.0110           0
     11047 MEMB     96       OSM      H11A     HAL2     0.900000E-01   1.00800           0
     11048 MEMB     96       OSM      H11B     HAL2     0.900000E-01   1.00800           0
     11049 MEMB     96       OSM      P        PL        1.50000       30.9740           0
     11050 MEMB     96       OSM      O13      O2L     -0.780000       15.9994           0
     11051 MEMB     96       OSM      O14      O2L     -0.780000       15.9994           0
     11052 MEMB     96       OSM      O11      OSLP    -0.570000       15.9994           0
     11053 MEMB     96       OSM      O12      OSLP    -0.570000       15.9994           0
     11054 MEMB     96       OSM      C1S      CTL2    -0.800000E-01   12.0110           0
     11055 MEMB     96       OSM      H1S      HAL2     0.900000E-01   1.00800           0
     11056 MEMB     96       OSM      H1T      HAL2     0.900000E-01   1.00800           0
     11057 MEMB     96       OSM      NF       NHL     -0.700000       14.0070           0
     11058 MEMB     96       OSM      HNF      H        0.350000       1.00800           0
     11059 MEMB     96       OSM      C2S      CTL1     0.300000       12.0110           0
     11060 MEMB     96       OSM      H2S      HAL1     0.500000E-01   1.00800           0
     11061 MEMB     96       OSM      C3S      CTO1     0.500000       12.0110           0
     11062 MEMB     96       OSM      H3S      HAL1    -0.110000       1.00800           0
     11063 MEMB     96       OSM      O3       OHL     -0.690000       15.9994           0
     11064 MEMB     96       OSM      HO3      HOL      0.300000       1.00800           0
     11065 MEMB     96       OSM      C4S      CEL3    -0.150000       12.0110           0
     11066 MEMB     96       OSM      H4S      HEL1     0.150000       1.00800           0
     11067 MEMB     96       OSM      C5S      CEL3    -0.150000       12.0110           0
     11068 MEMB     96       OSM      H5S      HEL1     0.150000       1.00800           0
     11069 MEMB     96       OSM      C6S      CTL2    -0.180000       12.0110           0
     11070 MEMB     96       OSM      H6S      HAL2     0.900000E-01   1.00800           0
     11071 MEMB     96       OSM      H6T      HAL2     0.900000E-01   1.00800           0
     11072 MEMB     96       OSM      C7S      CTL2    -0.180000       12.0110           0
     11073 MEMB     96       OSM      H7S      HAL2     0.900000E-01   1.00800           0
     11074 MEMB     96       OSM      H7T      HAL2     0.900000E-01   1.00800           0
     11075 MEMB     96       OSM      C8S      CTL2    -0.180000       12.0110           0
     11076 MEMB     96       OSM      H8S      HAL2     0.900000E-01   1.00800           0
     11077 MEMB     96       OSM      H8T      HAL2     0.900000E-01   1.00800           0
     11078 MEMB     96       OSM      C9S      CTL2    -0.180000       12.0110           0
     11079 MEMB     96       OSM      H9S      HAL2     0.900000E-01   1.00800           0
     11080 MEMB     96       OSM      H9T      HAL2     0.900000E-01   1.00800           0
     11081 MEMB     96       OSM      C10S     CTL2    -0.180000       12.0110           0
     11082 MEMB     96       OSM      H10S     HAL2     0.900000E-01   1.00800           0
     11083 MEMB     96       OSM      H10T     HAL2     0.900000E-01   1.00800           0
     11084 MEMB     96       OSM      C11S     CTL2    -0.180000       12.0110           0
     11085 MEMB     96       OSM      H11S     HAL2     0.900000E-01   1.00800           0
     11086 MEMB     96       OSM      H11T     HAL2     0.900000E-01   1.00800           0
     11087 MEMB     96       OSM      C12S     CTL2    -0.180000       12.0110           0
     11088 MEMB     96       OSM      H12S     HAL2     0.900000E-01   1.00800           0
     11089 MEMB     96       OSM      H12T     HAL2     0.900000E-01   1.00800           0
     11090 MEMB     96       OSM      C13S     CTL2    -0.180000       12.0110           0
     11091 MEMB     96       OSM      H13S     HAL2     0.900000E-01   1.00800           0
     11092 MEMB     96       OSM      H13T     HAL2     0.900000E-01   1.00800           0
     11093 MEMB     96       OSM      C14S     CTL2    -0.180000       12.0110           0
     11094 MEMB     96       OSM      H14S     HAL2     0.900000E-01   1.00800           0
     11095 MEMB     96       OSM      H14T     HAL2     0.900000E-01   1.00800           0
     11096 MEMB     96       OSM      C15S     CTL2    -0.180000       12.0110           0
     11097 MEMB     96       OSM      H15S     HAL2     0.900000E-01   1.00800           0
     11098 MEMB     96       OSM      H15T     HAL2     0.900000E-01   1.00800           0
     11099 MEMB     96       OSM      C16S     CTL2    -0.180000       12.0110           0
     11100 MEMB     96       OSM      H16S     HAL2     0.900000E-01   1.00800           0
     11101 MEMB     96       OSM      H16T     HAL2     0.900000E-01   1.00800           0
     11102 MEMB     96       OSM      C17S     CTL2    -0.180000       12.0110           0
     11103 MEMB     96       OSM      H17S     HAL2     0.900000E-01   1.00800           0
     11104 MEMB     96       OSM      H17T     HAL2     0.900000E-01   1.00800           0
     11105 MEMB     96       OSM      C18S     CTL3    -0.270000       12.0110           0
     11106 MEMB     96       OSM      H18S     HAL3     0.900000E-01   1.00800           0
     11107 MEMB     96       OSM      H18T     HAL3     0.900000E-01   1.00800           0
     11108 MEMB     96       OSM      H18U     HAL3     0.900000E-01   1.00800           0
     11109 MEMB     96       OSM      C1F      C        0.550000       12.0110           0
     11110 MEMB     96       OSM      OF       O       -0.600000       15.9994           0
     11111 MEMB     96       OSM      C2F      CTL2    -0.700000E-01   12.0110           0
     11112 MEMB     96       OSM      H2F      HAL2     0.600000E-01   1.00800           0
     11113 MEMB     96       OSM      H2G      HAL2     0.600000E-01   1.00800           0
     11114 MEMB     96       OSM      C3F      CTL2    -0.180000       12.0110           0
     11115 MEMB     96       OSM      H3F      HAL2     0.900000E-01   1.00800           0
     11116 MEMB     96       OSM      H3G      HAL2     0.900000E-01   1.00800           0
     11117 MEMB     96       OSM      C4F      CTL2    -0.180000       12.0110           0
     11118 MEMB     96       OSM      H4F      HAL2     0.900000E-01   1.00800           0
     11119 MEMB     96       OSM      H4G      HAL2     0.900000E-01   1.00800           0
     11120 MEMB     96       OSM      C5F      CTL2    -0.180000       12.0110           0
     11121 MEMB     96       OSM      H5F      HAL2     0.900000E-01   1.00800           0
     11122 MEMB     96       OSM      H5G      HAL2     0.900000E-01   1.00800           0
     11123 MEMB     96       OSM      C6F      CTL2    -0.180000       12.0110           0
     11124 MEMB     96       OSM      H6F      HAL2     0.900000E-01   1.00800           0
     11125 MEMB     96       OSM      H6G      HAL2     0.900000E-01   1.00800           0
     11126 MEMB     96       OSM      C7F      CTL2    -0.180000       12.0110           0
     11127 MEMB     96       OSM      H7F      HAL2     0.900000E-01   1.00800           0
     11128 MEMB     96       OSM      H7G      HAL2     0.900000E-01   1.00800           0
     11129 MEMB     96       OSM      C8F      CTL2    -0.180000       12.0110           0
     11130 MEMB     96       OSM      H8F      HAL2     0.900000E-01   1.00800           0
     11131 MEMB     96       OSM      H8G      HAL2     0.900000E-01   1.00800           0
     11132 MEMB     96       OSM      C9F      CEL1    -0.150000       12.0110           0
     11133 MEMB     96       OSM      H9F      HEL1     0.150000       1.00800           0
     11134 MEMB     96       OSM      C10F     CEL1    -0.150000       12.0110           0
     11135 MEMB     96       OSM      H10F     HEL1     0.150000       1.00800           0
     11136 MEMB     96       OSM      C11F     CTL2    -0.180000       12.0110           0
     11137 MEMB     96       OSM      H11F     HAL2     0.900000E-01   1.00800           0
     11138 MEMB     96       OSM      H11G     HAL2     0.900000E-01   1.00800           0
     11139 MEMB     96       OSM      C12F     CTL2    -0.180000       12.0110           0
     11140 MEMB     96       OSM      H12F     HAL2     0.900000E-01   1.00800           0
     11141 MEMB     96       OSM      H12G     HAL2     0.900000E-01   1.00800           0
     11142 MEMB     96       OSM      C13F     CTL2    -0.180000       12.0110           0
     11143 MEMB     96       OSM      H13F     HAL2     0.900000E-01   1.00800           0
     11144 MEMB     96       OSM      H13G     HAL2     0.900000E-01   1.00800           0
     11145 MEMB     96       OSM      C14F     CTL2    -0.180000       12.0110           0
     11146 MEMB     96       OSM      H14F     HAL2     0.900000E-01   1.00800           0
     11147 MEMB     96       OSM      H14G     HAL2     0.900000E-01   1.00800           0
     11148 MEMB     96       OSM      C15F     CTL2    -0.180000       12.0110           0
     11149 MEMB     96       OSM      H15F     HAL2     0.900000E-01   1.00800           0
     11150 MEMB     96       OSM      H15G     HAL2     0.900000E-01   1.00800           0
     11151 MEMB     96       OSM      C16F     CTL2    -0.180000       12.0110           0
     11152 MEMB     96       OSM      H16F     HAL2     0.900000E-01   1.00800           0
     11153 MEMB     96       OSM      H16G     HAL2     0.900000E-01   1.00800           0
     11154 MEMB     96       OSM      C17F     CTL2    -0.180000       12.0110           0
     11155 MEMB     96       OSM      H17F     HAL2     0.900000E-01   1.00800           0
     11156 MEMB     96       OSM      H17G     HAL2     0.900000E-01   1.00800           0
     11157 MEMB     96       OSM      C18F     CTL3    -0.270000       12.0110           0
     11158 MEMB     96       OSM      H18F     HAL3     0.900000E-01   1.00800           0
     11159 MEMB     96       OSM      H18G     HAL3     0.900000E-01   1.00800           0
     11160 MEMB     96       OSM      H18H     HAL3     0.900000E-01   1.00800           0
     11161 MEMB     97       SAPE     N        NH3L    -0.300000       14.0070           0
     11162 MEMB     97       SAPE     HN1      HCL      0.330000       1.00800           0
     11163 MEMB     97       SAPE     HN2      HCL      0.330000       1.00800           0
     11164 MEMB     97       SAPE     HN3      HCL      0.330000       1.00800           0
     11165 MEMB     97       SAPE     C12      CTL2     0.130000       12.0110           0
     11166 MEMB     97       SAPE     H12A     HAL2     0.900000E-01   1.00800           0
     11167 MEMB     97       SAPE     H12B     HAL2     0.900000E-01   1.00800           0
     11168 MEMB     97       SAPE     C11      CTL2    -0.800000E-01   12.0110           0
     11169 MEMB     97       SAPE     H11A     HAL2     0.900000E-01   1.00800           0
     11170 MEMB     97       SAPE     H11B     HAL2     0.900000E-01   1.00800           0
     11171 MEMB     97       SAPE     P        PL        1.50000       30.9740           0
     11172 MEMB     97       SAPE     O13      O2L     -0.780000       15.9994           0
     11173 MEMB     97       SAPE     O14      O2L     -0.780000       15.9994           0
     11174 MEMB     97       SAPE     O12      OSLP    -0.570000       15.9994           0
     11175 MEMB     97       SAPE     O11      OSLP    -0.570000       15.9994           0
     11176 MEMB     97       SAPE     C1       CTL2    -0.800000E-01   12.0110           0
     11177 MEMB     97       SAPE     HA       HAL2     0.900000E-01   1.00800           0
     11178 MEMB     97       SAPE     HB       HAL2     0.900000E-01   1.00800           0
     11179 MEMB     97       SAPE     C2       CTL1     0.170000       12.0110           0
     11180 MEMB     97       SAPE     HS       HAL1     0.900000E-01   1.00800           0
     11181 MEMB     97       SAPE     O21      OSL     -0.490000       15.9994           0
     11182 MEMB     97       SAPE     C21      CL       0.900000       12.0110           0
     11183 MEMB     97       SAPE     O22      OBL     -0.630000       15.9994           0
     11184 MEMB     97       SAPE     C22      CTL2    -0.220000       12.0110           0
     11185 MEMB     97       SAPE     H2R      HAL2     0.900000E-01   1.00800           0
     11186 MEMB     97       SAPE     H2S      HAL2     0.900000E-01   1.00800           0
     11187 MEMB     97       SAPE     C3       CTL2     0.800000E-01   12.0110           0
     11188 MEMB     97       SAPE     HX       HAL2     0.900000E-01   1.00800           0
     11189 MEMB     97       SAPE     HY       HAL2     0.900000E-01   1.00800           0
     11190 MEMB     97       SAPE     O31      OSL     -0.490000       15.9994           0
     11191 MEMB     97       SAPE     C31      CL       0.900000       12.0110           0
     11192 MEMB     97       SAPE     O32      OBL     -0.630000       15.9994           0
     11193 MEMB     97       SAPE     C32      CTL2    -0.220000       12.0110           0
     11194 MEMB     97       SAPE     H2X      HAL2     0.900000E-01   1.00800           0
     11195 MEMB     97       SAPE     H2Y      HAL2     0.900000E-01   1.00800           0
     11196 MEMB     97       SAPE     C23      CTL2    -0.180000       12.0110           0
     11197 MEMB     97       SAPE     H3R      HAL2     0.900000E-01   1.00800           0
     11198 MEMB     97       SAPE     H3S      HAL2     0.900000E-01   1.00800           0
     11199 MEMB     97       SAPE     C24      CTL2    -0.180000       12.0110           0
     11200 MEMB     97       SAPE     H4R      HAL2     0.900000E-01   1.00800           0
     11201 MEMB     97       SAPE     H4S      HAL2     0.900000E-01   1.00800           0
     11202 MEMB     97       SAPE     C25      CEL1    -0.150000       12.0110           0
     11203 MEMB     97       SAPE     H5R      HEL1     0.150000       1.00800           0
     11204 MEMB     97       SAPE     C26      CEL1    -0.150000       12.0110           0
     11205 MEMB     97       SAPE     H6R      HEL1     0.150000       1.00800           0
     11206 MEMB     97       SAPE     C27      CTL2    -0.180000       12.0110           0
     11207 MEMB     97       SAPE     H7R      HAL2     0.900000E-01   1.00800           0
     11208 MEMB     97       SAPE     H7S      HAL2     0.900000E-01   1.00800           0
     11209 MEMB     97       SAPE     C28      CEL1    -0.150000       12.0110           0
     11210 MEMB     97       SAPE     H8R      HEL1     0.150000       1.00800           0
     11211 MEMB     97       SAPE     C29      CEL1    -0.150000       12.0110           0
     11212 MEMB     97       SAPE     H9R      HEL1     0.150000       1.00800           0
     11213 MEMB     97       SAPE     C210     CTL2    -0.180000       12.0110           0
     11214 MEMB     97       SAPE     H10R     HAL2     0.900000E-01   1.00800           0
     11215 MEMB     97       SAPE     H10S     HAL2     0.900000E-01   1.00800           0
     11216 MEMB     97       SAPE     C211     CEL1    -0.150000       12.0110           0
     11217 MEMB     97       SAPE     H11R     HEL1     0.150000       1.00800           0
     11218 MEMB     97       SAPE     C212     CEL1    -0.150000       12.0110           0
     11219 MEMB     97       SAPE     H12R     HEL1     0.150000       1.00800           0
     11220 MEMB     97       SAPE     C213     CTL2    -0.180000       12.0110           0
     11221 MEMB     97       SAPE     H13R     HAL2     0.900000E-01   1.00800           0
     11222 MEMB     97       SAPE     H13S     HAL2     0.900000E-01   1.00800           0
     11223 MEMB     97       SAPE     C214     CEL1    -0.150000       12.0110           0
     11224 MEMB     97       SAPE     H14R     HEL1     0.150000       1.00800           0
     11225 MEMB     97       SAPE     C215     CEL1    -0.150000       12.0110           0
     11226 MEMB     97       SAPE     H15R     HEL1     0.150000       1.00800           0
     11227 MEMB     97       SAPE     C216     CTL2    -0.180000       12.0110           0
     11228 MEMB     97       SAPE     H16R     HAL2     0.900000E-01   1.00800           0
     11229 MEMB     97       SAPE     H16S     HAL2     0.900000E-01   1.00800           0
     11230 MEMB     97       SAPE     C217     CTL2    -0.180000       12.0110           0
     11231 MEMB     97       SAPE     H17R     HAL2     0.900000E-01   1.00800           0
     11232 MEMB     97       SAPE     H17S     HAL2     0.900000E-01   1.00800           0
     11233 MEMB     97       SAPE     C218     CTL2    -0.180000       12.0110           0
     11234 MEMB     97       SAPE     H18R     HAL2     0.900000E-01   1.00800           0
     11235 MEMB     97       SAPE     H18S     HAL2     0.900000E-01   1.00800           0
     11236 MEMB     97       SAPE     C219     CTL2    -0.180000       12.0110           0
     11237 MEMB     97       SAPE     H19R     HAL2     0.900000E-01   1.00800           0
     11238 MEMB     97       SAPE     H19S     HAL2     0.900000E-01   1.00800           0
     11239 MEMB     97       SAPE     C220     CTL3    -0.270000       12.0110           0
     11240 MEMB     97       SAPE     H20R     HAL3     0.900000E-01   1.00800           0
     11241 MEMB     97       SAPE     H20S     HAL3     0.900000E-01   1.00800           0
     11242 MEMB     97       SAPE     H20T     HAL3     0.900000E-01   1.00800           0
     11243 MEMB     97       SAPE     C33      CTL2    -0.180000       12.0110           0
     11244 MEMB     97       SAPE     H3X      HAL2     0.900000E-01   1.00800           0
     11245 MEMB     97       SAPE     H3Y      HAL2     0.900000E-01   1.00800           0
     11246 MEMB     97       SAPE     C34      CTL2    -0.180000       12.0110           0
     11247 MEMB     97       SAPE     H4X      HAL2     0.900000E-01   1.00800           0
     11248 MEMB     97       SAPE     H4Y      HAL2     0.900000E-01   1.00800           0
     11249 MEMB     97       SAPE     C35      CTL2    -0.180000       12.0110           0
     11250 MEMB     97       SAPE     H5X      HAL2     0.900000E-01   1.00800           0
     11251 MEMB     97       SAPE     H5Y      HAL2     0.900000E-01   1.00800           0
     11252 MEMB     97       SAPE     C36      CTL2    -0.180000       12.0110           0
     11253 MEMB     97       SAPE     H6X      HAL2     0.900000E-01   1.00800           0
     11254 MEMB     97       SAPE     H6Y      HAL2     0.900000E-01   1.00800           0
     11255 MEMB     97       SAPE     C37      CTL2    -0.180000       12.0110           0
     11256 MEMB     97       SAPE     H7X      HAL2     0.900000E-01   1.00800           0
     11257 MEMB     97       SAPE     H7Y      HAL2     0.900000E-01   1.00800           0
     11258 MEMB     97       SAPE     C38      CTL2    -0.180000       12.0110           0
     11259 MEMB     97       SAPE     H8X      HAL2     0.900000E-01   1.00800           0
     11260 MEMB     97       SAPE     H8Y      HAL2     0.900000E-01   1.00800           0
     11261 MEMB     97       SAPE     C39      CTL2    -0.180000       12.0110           0
     11262 MEMB     97       SAPE     H9X      HAL2     0.900000E-01   1.00800           0
     11263 MEMB     97       SAPE     H9Y      HAL2     0.900000E-01   1.00800           0
     11264 MEMB     97       SAPE     C310     CTL2    -0.180000       12.0110           0
     11265 MEMB     97       SAPE     H10X     HAL2     0.900000E-01   1.00800           0
     11266 MEMB     97       SAPE     H10Y     HAL2     0.900000E-01   1.00800           0
     11267 MEMB     97       SAPE     C311     CTL2    -0.180000       12.0110           0
     11268 MEMB     97       SAPE     H11X     HAL2     0.900000E-01   1.00800           0
     11269 MEMB     97       SAPE     H11Y     HAL2     0.900000E-01   1.00800           0
     11270 MEMB     97       SAPE     C312     CTL2    -0.180000       12.0110           0
     11271 MEMB     97       SAPE     H12X     HAL2     0.900000E-01   1.00800           0
     11272 MEMB     97       SAPE     H12Y     HAL2     0.900000E-01   1.00800           0
     11273 MEMB     97       SAPE     C313     CTL2    -0.180000       12.0110           0
     11274 MEMB     97       SAPE     H13X     HAL2     0.900000E-01   1.00800           0
     11275 MEMB     97       SAPE     H13Y     HAL2     0.900000E-01   1.00800           0
     11276 MEMB     97       SAPE     C314     CTL2    -0.180000       12.0110           0
     11277 MEMB     97       SAPE     H14X     HAL2     0.900000E-01   1.00800           0
     11278 MEMB     97       SAPE     H14Y     HAL2     0.900000E-01   1.00800           0
     11279 MEMB     97       SAPE     C315     CTL2    -0.180000       12.0110           0
     11280 MEMB     97       SAPE     H15X     HAL2     0.900000E-01   1.00800           0
     11281 MEMB     97       SAPE     H15Y     HAL2     0.900000E-01   1.00800           0
     11282 MEMB     97       SAPE     C316     CTL2    -0.180000       12.0110           0
     11283 MEMB     97       SAPE     H16X     HAL2     0.900000E-01   1.00800           0
     11284 MEMB     97       SAPE     H16Y     HAL2     0.900000E-01   1.00800           0
     11285 MEMB     97       SAPE     C317     CTL2    -0.180000       12.0110           0
     11286 MEMB     97       SAPE     H17X     HAL2     0.900000E-01   1.00800           0
     11287 MEMB     97       SAPE     H17Y     HAL2     0.900000E-01   1.00800           0
     11288 MEMB     97       SAPE     C318     CTL3    -0.270000       12.0110           0
     11289 MEMB     97       SAPE     H18X     HAL3     0.900000E-01   1.00800           0
     11290 MEMB     97       SAPE     H18Y     HAL3     0.900000E-01   1.00800           0
     11291 MEMB     97       SAPE     H18Z     HAL3     0.900000E-01   1.00800           0
     11292 MEMB     98       SAPE     N        NH3L    -0.300000       14.0070           0
     11293 MEMB     98       SAPE     HN1      HCL      0.330000       1.00800           0
     11294 MEMB     98       SAPE     HN2      HCL      0.330000       1.00800           0
     11295 MEMB     98       SAPE     HN3      HCL      0.330000       1.00800           0
     11296 MEMB     98       SAPE     C12      CTL2     0.130000       12.0110           0
     11297 MEMB     98       SAPE     H12A     HAL2     0.900000E-01   1.00800           0
     11298 MEMB     98       SAPE     H12B     HAL2     0.900000E-01   1.00800           0
     11299 MEMB     98       SAPE     C11      CTL2    -0.800000E-01   12.0110           0
     11300 MEMB     98       SAPE     H11A     HAL2     0.900000E-01   1.00800           0
     11301 MEMB     98       SAPE     H11B     HAL2     0.900000E-01   1.00800           0
     11302 MEMB     98       SAPE     P        PL        1.50000       30.9740           0
     11303 MEMB     98       SAPE     O13      O2L     -0.780000       15.9994           0
     11304 MEMB     98       SAPE     O14      O2L     -0.780000       15.9994           0
     11305 MEMB     98       SAPE     O12      OSLP    -0.570000       15.9994           0
     11306 MEMB     98       SAPE     O11      OSLP    -0.570000       15.9994           0
     11307 MEMB     98       SAPE     C1       CTL2    -0.800000E-01   12.0110           0
     11308 MEMB     98       SAPE     HA       HAL2     0.900000E-01   1.00800           0
     11309 MEMB     98       SAPE     HB       HAL2     0.900000E-01   1.00800           0
     11310 MEMB     98       SAPE     C2       CTL1     0.170000       12.0110           0
     11311 MEMB     98       SAPE     HS       HAL1     0.900000E-01   1.00800           0
     11312 MEMB     98       SAPE     O21      OSL     -0.490000       15.9994           0
     11313 MEMB     98       SAPE     C21      CL       0.900000       12.0110           0
     11314 MEMB     98       SAPE     O22      OBL     -0.630000       15.9994           0
     11315 MEMB     98       SAPE     C22      CTL2    -0.220000       12.0110           0
     11316 MEMB     98       SAPE     H2R      HAL2     0.900000E-01   1.00800           0
     11317 MEMB     98       SAPE     H2S      HAL2     0.900000E-01   1.00800           0
     11318 MEMB     98       SAPE     C3       CTL2     0.800000E-01   12.0110           0
     11319 MEMB     98       SAPE     HX       HAL2     0.900000E-01   1.00800           0
     11320 MEMB     98       SAPE     HY       HAL2     0.900000E-01   1.00800           0
     11321 MEMB     98       SAPE     O31      OSL     -0.490000       15.9994           0
     11322 MEMB     98       SAPE     C31      CL       0.900000       12.0110           0
     11323 MEMB     98       SAPE     O32      OBL     -0.630000       15.9994           0
     11324 MEMB     98       SAPE     C32      CTL2    -0.220000       12.0110           0
     11325 MEMB     98       SAPE     H2X      HAL2     0.900000E-01   1.00800           0
     11326 MEMB     98       SAPE     H2Y      HAL2     0.900000E-01   1.00800           0
     11327 MEMB     98       SAPE     C23      CTL2    -0.180000       12.0110           0
     11328 MEMB     98       SAPE     H3R      HAL2     0.900000E-01   1.00800           0
     11329 MEMB     98       SAPE     H3S      HAL2     0.900000E-01   1.00800           0
     11330 MEMB     98       SAPE     C24      CTL2    -0.180000       12.0110           0
     11331 MEMB     98       SAPE     H4R      HAL2     0.900000E-01   1.00800           0
     11332 MEMB     98       SAPE     H4S      HAL2     0.900000E-01   1.00800           0
     11333 MEMB     98       SAPE     C25      CEL1    -0.150000       12.0110           0
     11334 MEMB     98       SAPE     H5R      HEL1     0.150000       1.00800           0
     11335 MEMB     98       SAPE     C26      CEL1    -0.150000       12.0110           0
     11336 MEMB     98       SAPE     H6R      HEL1     0.150000       1.00800           0
     11337 MEMB     98       SAPE     C27      CTL2    -0.180000       12.0110           0
     11338 MEMB     98       SAPE     H7R      HAL2     0.900000E-01   1.00800           0
     11339 MEMB     98       SAPE     H7S      HAL2     0.900000E-01   1.00800           0
     11340 MEMB     98       SAPE     C28      CEL1    -0.150000       12.0110           0
     11341 MEMB     98       SAPE     H8R      HEL1     0.150000       1.00800           0
     11342 MEMB     98       SAPE     C29      CEL1    -0.150000       12.0110           0
     11343 MEMB     98       SAPE     H9R      HEL1     0.150000       1.00800           0
     11344 MEMB     98       SAPE     C210     CTL2    -0.180000       12.0110           0
     11345 MEMB     98       SAPE     H10R     HAL2     0.900000E-01   1.00800           0
     11346 MEMB     98       SAPE     H10S     HAL2     0.900000E-01   1.00800           0
     11347 MEMB     98       SAPE     C211     CEL1    -0.150000       12.0110           0
     11348 MEMB     98       SAPE     H11R     HEL1     0.150000       1.00800           0
     11349 MEMB     98       SAPE     C212     CEL1    -0.150000       12.0110           0
     11350 MEMB     98       SAPE     H12R     HEL1     0.150000       1.00800           0
     11351 MEMB     98       SAPE     C213     CTL2    -0.180000       12.0110           0
     11352 MEMB     98       SAPE     H13R     HAL2     0.900000E-01   1.00800           0
     11353 MEMB     98       SAPE     H13S     HAL2     0.900000E-01   1.00800           0
     11354 MEMB     98       SAPE     C214     CEL1    -0.150000       12.0110           0
     11355 MEMB     98       SAPE     H14R     HEL1     0.150000       1.00800           0
     11356 MEMB     98       SAPE     C215     CEL1    -0.150000       12.0110           0
     11357 MEMB     98       SAPE     H15R     HEL1     0.150000       1.00800           0
     11358 MEMB     98       SAPE     C216     CTL2    -0.180000       12.0110           0
     11359 MEMB     98       SAPE     H16R     HAL2     0.900000E-01   1.00800           0
     11360 MEMB     98       SAPE     H16S     HAL2     0.900000E-01   1.00800           0
     11361 MEMB     98       SAPE     C217     CTL2    -0.180000       12.0110           0
     11362 MEMB     98       SAPE     H17R     HAL2     0.900000E-01   1.00800           0
     11363 MEMB     98       SAPE     H17S     HAL2     0.900000E-01   1.00800           0
     11364 MEMB     98       SAPE     C218     CTL2    -0.180000       12.0110           0
     11365 MEMB     98       SAPE     H18R     HAL2     0.900000E-01   1.00800           0
     11366 MEMB     98       SAPE     H18S     HAL2     0.900000E-01   1.00800           0
     11367 MEMB     98       SAPE     C219     CTL2    -0.180000       12.0110           0
     11368 MEMB     98       SAPE     H19R     HAL2     0.900000E-01   1.00800           0
     11369 MEMB     98       SAPE     H19S     HAL2     0.900000E-01   1.00800           0
     11370 MEMB     98       SAPE     C220     CTL3    -0.270000       12.0110           0
     11371 MEMB     98       SAPE     H20R     HAL3     0.900000E-01   1.00800           0
     11372 MEMB     98       SAPE     H20S     HAL3     0.900000E-01   1.00800           0
     11373 MEMB     98       SAPE     H20T     HAL3     0.900000E-01   1.00800           0
     11374 MEMB     98       SAPE     C33      CTL2    -0.180000       12.0110           0
     11375 MEMB     98       SAPE     H3X      HAL2     0.900000E-01   1.00800           0
     11376 MEMB     98       SAPE     H3Y      HAL2     0.900000E-01   1.00800           0
     11377 MEMB     98       SAPE     C34      CTL2    -0.180000       12.0110           0
     11378 MEMB     98       SAPE     H4X      HAL2     0.900000E-01   1.00800           0
     11379 MEMB     98       SAPE     H4Y      HAL2     0.900000E-01   1.00800           0
     11380 MEMB     98       SAPE     C35      CTL2    -0.180000       12.0110           0
     11381 MEMB     98       SAPE     H5X      HAL2     0.900000E-01   1.00800           0
     11382 MEMB     98       SAPE     H5Y      HAL2     0.900000E-01   1.00800           0
     11383 MEMB     98       SAPE     C36      CTL2    -0.180000       12.0110           0
     11384 MEMB     98       SAPE     H6X      HAL2     0.900000E-01   1.00800           0
     11385 MEMB     98       SAPE     H6Y      HAL2     0.900000E-01   1.00800           0
     11386 MEMB     98       SAPE     C37      CTL2    -0.180000       12.0110           0
     11387 MEMB     98       SAPE     H7X      HAL2     0.900000E-01   1.00800           0
     11388 MEMB     98       SAPE     H7Y      HAL2     0.900000E-01   1.00800           0
     11389 MEMB     98       SAPE     C38      CTL2    -0.180000       12.0110           0
     11390 MEMB     98       SAPE     H8X      HAL2     0.900000E-01   1.00800           0
     11391 MEMB     98       SAPE     H8Y      HAL2     0.900000E-01   1.00800           0
     11392 MEMB     98       SAPE     C39      CTL2    -0.180000       12.0110           0
     11393 MEMB     98       SAPE     H9X      HAL2     0.900000E-01   1.00800           0
     11394 MEMB     98       SAPE     H9Y      HAL2     0.900000E-01   1.00800           0
     11395 MEMB     98       SAPE     C310     CTL2    -0.180000       12.0110           0
     11396 MEMB     98       SAPE     H10X     HAL2     0.900000E-01   1.00800           0
     11397 MEMB     98       SAPE     H10Y     HAL2     0.900000E-01   1.00800           0
     11398 MEMB     98       SAPE     C311     CTL2    -0.180000       12.0110           0
     11399 MEMB     98       SAPE     H11X     HAL2     0.900000E-01   1.00800           0
     11400 MEMB     98       SAPE     H11Y     HAL2     0.900000E-01   1.00800           0
     11401 MEMB     98       SAPE     C312     CTL2    -0.180000       12.0110           0
     11402 MEMB     98       SAPE     H12X     HAL2     0.900000E-01   1.00800           0
     11403 MEMB     98       SAPE     H12Y     HAL2     0.900000E-01   1.00800           0
     11404 MEMB     98       SAPE     C313     CTL2    -0.180000       12.0110           0
     11405 MEMB     98       SAPE     H13X     HAL2     0.900000E-01   1.00800           0
     11406 MEMB     98       SAPE     H13Y     HAL2     0.900000E-01   1.00800           0
     11407 MEMB     98       SAPE     C314     CTL2    -0.180000       12.0110           0
     11408 MEMB     98       SAPE     H14X     HAL2     0.900000E-01   1.00800           0
     11409 MEMB     98       SAPE     H14Y     HAL2     0.900000E-01   1.00800           0
     11410 MEMB     98       SAPE     C315     CTL2    -0.180000       12.0110           0
     11411 MEMB     98       SAPE     H15X     HAL2     0.900000E-01   1.00800           0
     11412 MEMB     98       SAPE     H15Y     HAL2     0.900000E-01   1.00800           0
     11413 MEMB     98       SAPE     C316     CTL2    -0.180000       12.0110           0
     11414 MEMB     98       SAPE     H16X     HAL2     0.900000E-01   1.00800           0
     11415 MEMB     98       SAPE     H16Y     HAL2     0.900000E-01   1.00800           0
     11416 MEMB     98       SAPE     C317     CTL2    -0.180000       12.0110           0
     11417 MEMB     98       SAPE     H17X     HAL2     0.900000E-01   1.00800           0
     11418 MEMB     98       SAPE     H17Y     HAL2     0.900000E-01   1.00800           0
     11419 MEMB     98       SAPE     C318     CTL3    -0.270000       12.0110           0
     11420 MEMB     98       SAPE     H18X     HAL3     0.900000E-01   1.00800           0
     11421 MEMB     98       SAPE     H18Y     HAL3     0.900000E-01   1.00800           0
     11422 MEMB     98       SAPE     H18Z     HAL3     0.900000E-01   1.00800           0
     11423 MEMB     99       SAPE     N        NH3L    -0.300000       14.0070           0
     11424 MEMB     99       SAPE     HN1      HCL      0.330000       1.00800           0
     11425 MEMB     99       SAPE     HN2      HCL      0.330000       1.00800           0
     11426 MEMB     99       SAPE     HN3      HCL      0.330000       1.00800           0
     11427 MEMB     99       SAPE     C12      CTL2     0.130000       12.0110           0
     11428 MEMB     99       SAPE     H12A     HAL2     0.900000E-01   1.00800           0
     11429 MEMB     99       SAPE     H12B     HAL2     0.900000E-01   1.00800           0
     11430 MEMB     99       SAPE     C11      CTL2    -0.800000E-01   12.0110           0
     11431 MEMB     99       SAPE     H11A     HAL2     0.900000E-01   1.00800           0
     11432 MEMB     99       SAPE     H11B     HAL2     0.900000E-01   1.00800           0
     11433 MEMB     99       SAPE     P        PL        1.50000       30.9740           0
     11434 MEMB     99       SAPE     O13      O2L     -0.780000       15.9994           0
     11435 MEMB     99       SAPE     O14      O2L     -0.780000       15.9994           0
     11436 MEMB     99       SAPE     O12      OSLP    -0.570000       15.9994           0
     11437 MEMB     99       SAPE     O11      OSLP    -0.570000       15.9994           0
     11438 MEMB     99       SAPE     C1       CTL2    -0.800000E-01   12.0110           0
     11439 MEMB     99       SAPE     HA       HAL2     0.900000E-01   1.00800           0
     11440 MEMB     99       SAPE     HB       HAL2     0.900000E-01   1.00800           0
     11441 MEMB     99       SAPE     C2       CTL1     0.170000       12.0110           0
     11442 MEMB     99       SAPE     HS       HAL1     0.900000E-01   1.00800           0
     11443 MEMB     99       SAPE     O21      OSL     -0.490000       15.9994           0
     11444 MEMB     99       SAPE     C21      CL       0.900000       12.0110           0
     11445 MEMB     99       SAPE     O22      OBL     -0.630000       15.9994           0
     11446 MEMB     99       SAPE     C22      CTL2    -0.220000       12.0110           0
     11447 MEMB     99       SAPE     H2R      HAL2     0.900000E-01   1.00800           0
     11448 MEMB     99       SAPE     H2S      HAL2     0.900000E-01   1.00800           0
     11449 MEMB     99       SAPE     C3       CTL2     0.800000E-01   12.0110           0
     11450 MEMB     99       SAPE     HX       HAL2     0.900000E-01   1.00800           0
     11451 MEMB     99       SAPE     HY       HAL2     0.900000E-01   1.00800           0
     11452 MEMB     99       SAPE     O31      OSL     -0.490000       15.9994           0
     11453 MEMB     99       SAPE     C31      CL       0.900000       12.0110           0
     11454 MEMB     99       SAPE     O32      OBL     -0.630000       15.9994           0
     11455 MEMB     99       SAPE     C32      CTL2    -0.220000       12.0110           0
     11456 MEMB     99       SAPE     H2X      HAL2     0.900000E-01   1.00800           0
     11457 MEMB     99       SAPE     H2Y      HAL2     0.900000E-01   1.00800           0
     11458 MEMB     99       SAPE     C23      CTL2    -0.180000       12.0110           0
     11459 MEMB     99       SAPE     H3R      HAL2     0.900000E-01   1.00800           0
     11460 MEMB     99       SAPE     H3S      HAL2     0.900000E-01   1.00800           0
     11461 MEMB     99       SAPE     C24      CTL2    -0.180000       12.0110           0
     11462 MEMB     99       SAPE     H4R      HAL2     0.900000E-01   1.00800           0
     11463 MEMB     99       SAPE     H4S      HAL2     0.900000E-01   1.00800           0
     11464 MEMB     99       SAPE     C25      CEL1    -0.150000       12.0110           0
     11465 MEMB     99       SAPE     H5R      HEL1     0.150000       1.00800           0
     11466 MEMB     99       SAPE     C26      CEL1    -0.150000       12.0110           0
     11467 MEMB     99       SAPE     H6R      HEL1     0.150000       1.00800           0
     11468 MEMB     99       SAPE     C27      CTL2    -0.180000       12.0110           0
     11469 MEMB     99       SAPE     H7R      HAL2     0.900000E-01   1.00800           0
     11470 MEMB     99       SAPE     H7S      HAL2     0.900000E-01   1.00800           0
     11471 MEMB     99       SAPE     C28      CEL1    -0.150000       12.0110           0
     11472 MEMB     99       SAPE     H8R      HEL1     0.150000       1.00800           0
     11473 MEMB     99       SAPE     C29      CEL1    -0.150000       12.0110           0
     11474 MEMB     99       SAPE     H9R      HEL1     0.150000       1.00800           0
     11475 MEMB     99       SAPE     C210     CTL2    -0.180000       12.0110           0
     11476 MEMB     99       SAPE     H10R     HAL2     0.900000E-01   1.00800           0
     11477 MEMB     99       SAPE     H10S     HAL2     0.900000E-01   1.00800           0
     11478 MEMB     99       SAPE     C211     CEL1    -0.150000       12.0110           0
     11479 MEMB     99       SAPE     H11R     HEL1     0.150000       1.00800           0
     11480 MEMB     99       SAPE     C212     CEL1    -0.150000       12.0110           0
     11481 MEMB     99       SAPE     H12R     HEL1     0.150000       1.00800           0
     11482 MEMB     99       SAPE     C213     CTL2    -0.180000       12.0110           0
     11483 MEMB     99       SAPE     H13R     HAL2     0.900000E-01   1.00800           0
     11484 MEMB     99       SAPE     H13S     HAL2     0.900000E-01   1.00800           0
     11485 MEMB     99       SAPE     C214     CEL1    -0.150000       12.0110           0
     11486 MEMB     99       SAPE     H14R     HEL1     0.150000       1.00800           0
     11487 MEMB     99       SAPE     C215     CEL1    -0.150000       12.0110           0
     11488 MEMB     99       SAPE     H15R     HEL1     0.150000       1.00800           0
     11489 MEMB     99       SAPE     C216     CTL2    -0.180000       12.0110           0
     11490 MEMB     99       SAPE     H16R     HAL2     0.900000E-01   1.00800           0
     11491 MEMB     99       SAPE     H16S     HAL2     0.900000E-01   1.00800           0
     11492 MEMB     99       SAPE     C217     CTL2    -0.180000       12.0110           0
     11493 MEMB     99       SAPE     H17R     HAL2     0.900000E-01   1.00800           0
     11494 MEMB     99       SAPE     H17S     HAL2     0.900000E-01   1.00800           0
     11495 MEMB     99       SAPE     C218     CTL2    -0.180000       12.0110           0
     11496 MEMB     99       SAPE     H18R     HAL2     0.900000E-01   1.00800           0
     11497 MEMB     99       SAPE     H18S     HAL2     0.900000E-01   1.00800           0
     11498 MEMB     99       SAPE     C219     CTL2    -0.180000       12.0110           0
     11499 MEMB     99       SAPE     H19R     HAL2     0.900000E-01   1.00800           0
     11500 MEMB     99       SAPE     H19S     HAL2     0.900000E-01   1.00800           0
     11501 MEMB     99       SAPE     C220     CTL3    -0.270000       12.0110           0
     11502 MEMB     99       SAPE     H20R     HAL3     0.900000E-01   1.00800           0
     11503 MEMB     99       SAPE     H20S     HAL3     0.900000E-01   1.00800           0
     11504 MEMB     99       SAPE     H20T     HAL3     0.900000E-01   1.00800           0
     11505 MEMB     99       SAPE     C33      CTL2    -0.180000       12.0110           0
     11506 MEMB     99       SAPE     H3X      HAL2     0.900000E-01   1.00800           0
     11507 MEMB     99       SAPE     H3Y      HAL2     0.900000E-01   1.00800           0
     11508 MEMB     99       SAPE     C34      CTL2    -0.180000       12.0110           0
     11509 MEMB     99       SAPE     H4X      HAL2     0.900000E-01   1.00800           0
     11510 MEMB     99       SAPE     H4Y      HAL2     0.900000E-01   1.00800           0
     11511 MEMB     99       SAPE     C35      CTL2    -0.180000       12.0110           0
     11512 MEMB     99       SAPE     H5X      HAL2     0.900000E-01   1.00800           0
     11513 MEMB     99       SAPE     H5Y      HAL2     0.900000E-01   1.00800           0
     11514 MEMB     99       SAPE     C36      CTL2    -0.180000       12.0110           0
     11515 MEMB     99       SAPE     H6X      HAL2     0.900000E-01   1.00800           0
     11516 MEMB     99       SAPE     H6Y      HAL2     0.900000E-01   1.00800           0
     11517 MEMB     99       SAPE     C37      CTL2    -0.180000       12.0110           0
     11518 MEMB     99       SAPE     H7X      HAL2     0.900000E-01   1.00800           0
     11519 MEMB     99       SAPE     H7Y      HAL2     0.900000E-01   1.00800           0
     11520 MEMB     99       SAPE     C38      CTL2    -0.180000       12.0110           0
     11521 MEMB     99       SAPE     H8X      HAL2     0.900000E-01   1.00800           0
     11522 MEMB     99       SAPE     H8Y      HAL2     0.900000E-01   1.00800           0
     11523 MEMB     99       SAPE     C39      CTL2    -0.180000       12.0110           0
     11524 MEMB     99       SAPE     H9X      HAL2     0.900000E-01   1.00800           0
     11525 MEMB     99       SAPE     H9Y      HAL2     0.900000E-01   1.00800           0
     11526 MEMB     99       SAPE     C310     CTL2    -0.180000       12.0110           0
     11527 MEMB     99       SAPE     H10X     HAL2     0.900000E-01   1.00800           0
     11528 MEMB     99       SAPE     H10Y     HAL2     0.900000E-01   1.00800           0
     11529 MEMB     99       SAPE     C311     CTL2    -0.180000       12.0110           0
     11530 MEMB     99       SAPE     H11X     HAL2     0.900000E-01   1.00800           0
     11531 MEMB     99       SAPE     H11Y     HAL2     0.900000E-01   1.00800           0
     11532 MEMB     99       SAPE     C312     CTL2    -0.180000       12.0110           0
     11533 MEMB     99       SAPE     H12X     HAL2     0.900000E-01   1.00800           0
     11534 MEMB     99       SAPE     H12Y     HAL2     0.900000E-01   1.00800           0
     11535 MEMB     99       SAPE     C313     CTL2    -0.180000       12.0110           0
     11536 MEMB     99       SAPE     H13X     HAL2     0.900000E-01   1.00800           0
     11537 MEMB     99       SAPE     H13Y     HAL2     0.900000E-01   1.00800           0
     11538 MEMB     99       SAPE     C314     CTL2    -0.180000       12.0110           0
     11539 MEMB     99       SAPE     H14X     HAL2     0.900000E-01   1.00800           0
     11540 MEMB     99       SAPE     H14Y     HAL2     0.900000E-01   1.00800           0
     11541 MEMB     99       SAPE     C315     CTL2    -0.180000       12.0110           0
     11542 MEMB     99       SAPE     H15X     HAL2     0.900000E-01   1.00800           0
     11543 MEMB     99       SAPE     H15Y     HAL2     0.900000E-01   1.00800           0
     11544 MEMB     99       SAPE     C316     CTL2    -0.180000       12.0110           0
     11545 MEMB     99       SAPE     H16X     HAL2     0.900000E-01   1.00800           0
     11546 MEMB     99       SAPE     H16Y     HAL2     0.900000E-01   1.00800           0
     11547 MEMB     99       SAPE     C317     CTL2    -0.180000       12.0110           0
     11548 MEMB     99       SAPE     H17X     HAL2     0.900000E-01   1.00800           0
     11549 MEMB     99       SAPE     H17Y     HAL2     0.900000E-01   1.00800           0
     11550 MEMB     99       SAPE     C318     CTL3    -0.270000       12.0110           0
     11551 MEMB     99       SAPE     H18X     HAL3     0.900000E-01   1.00800           0
     11552 MEMB     99       SAPE     H18Y     HAL3     0.900000E-01   1.00800           0
     11553 MEMB     99       SAPE     H18Z     HAL3     0.900000E-01   1.00800           0
     11554 MEMB     100      SAPS     N        NH3L    -0.300000       14.0070           0
     11555 MEMB     100      SAPS     HN1      HCL      0.330000       1.00800           0
     11556 MEMB     100      SAPS     HN2      HCL      0.330000       1.00800           0
     11557 MEMB     100      SAPS     HN3      HCL      0.330000       1.00800           0
     11558 MEMB     100      SAPS     C12      CTL1     0.210000       12.0110           0
     11559 MEMB     100      SAPS     H12A     HBL      0.100000       1.00800           0
     11560 MEMB     100      SAPS     C13      CCL      0.340000       12.0110           0
     11561 MEMB     100      SAPS     O13A     OCL     -0.670000       15.9994           0
     11562 MEMB     100      SAPS     O13B     OCL     -0.670000       15.9994           0
     11563 MEMB     100      SAPS     C11      CTL2    -0.800000E-01   12.0110           0
     11564 MEMB     100      SAPS     H11A     HAL2     0.900000E-01   1.00800           0
     11565 MEMB     100      SAPS     H11B     HAL2     0.900000E-01   1.00800           0
     11566 MEMB     100      SAPS     P        PL        1.50000       30.9740           0
     11567 MEMB     100      SAPS     O13      O2L     -0.780000       15.9994           0
     11568 MEMB     100      SAPS     O14      O2L     -0.780000       15.9994           0
     11569 MEMB     100      SAPS     O12      OSLP    -0.570000       15.9994           0
     11570 MEMB     100      SAPS     O11      OSLP    -0.570000       15.9994           0
     11571 MEMB     100      SAPS     C1       CTL2    -0.800000E-01   12.0110           0
     11572 MEMB     100      SAPS     HA       HAL2     0.900000E-01   1.00800           0
     11573 MEMB     100      SAPS     HB       HAL2     0.900000E-01   1.00800           0
     11574 MEMB     100      SAPS     C2       CTL1     0.170000       12.0110           0
     11575 MEMB     100      SAPS     HS       HAL1     0.900000E-01   1.00800           0
     11576 MEMB     100      SAPS     O21      OSL     -0.490000       15.9994           0
     11577 MEMB     100      SAPS     C21      CL       0.900000       12.0110           0
     11578 MEMB     100      SAPS     O22      OBL     -0.630000       15.9994           0
     11579 MEMB     100      SAPS     C22      CTL2    -0.220000       12.0110           0
     11580 MEMB     100      SAPS     H2R      HAL2     0.900000E-01   1.00800           0
     11581 MEMB     100      SAPS     H2S      HAL2     0.900000E-01   1.00800           0
     11582 MEMB     100      SAPS     C3       CTL2     0.800000E-01   12.0110           0
     11583 MEMB     100      SAPS     HX       HAL2     0.900000E-01   1.00800           0
     11584 MEMB     100      SAPS     HY       HAL2     0.900000E-01   1.00800           0
     11585 MEMB     100      SAPS     O31      OSL     -0.490000       15.9994           0
     11586 MEMB     100      SAPS     C31      CL       0.900000       12.0110           0
     11587 MEMB     100      SAPS     O32      OBL     -0.630000       15.9994           0
     11588 MEMB     100      SAPS     C32      CTL2    -0.220000       12.0110           0
     11589 MEMB     100      SAPS     H2X      HAL2     0.900000E-01   1.00800           0
     11590 MEMB     100      SAPS     H2Y      HAL2     0.900000E-01   1.00800           0
     11591 MEMB     100      SAPS     C23      CTL2    -0.180000       12.0110           0
     11592 MEMB     100      SAPS     H3R      HAL2     0.900000E-01   1.00800           0
     11593 MEMB     100      SAPS     H3S      HAL2     0.900000E-01   1.00800           0
     11594 MEMB     100      SAPS     C24      CTL2    -0.180000       12.0110           0
     11595 MEMB     100      SAPS     H4R      HAL2     0.900000E-01   1.00800           0
     11596 MEMB     100      SAPS     H4S      HAL2     0.900000E-01   1.00800           0
     11597 MEMB     100      SAPS     C25      CEL1    -0.150000       12.0110           0
     11598 MEMB     100      SAPS     H5R      HEL1     0.150000       1.00800           0
     11599 MEMB     100      SAPS     C26      CEL1    -0.150000       12.0110           0
     11600 MEMB     100      SAPS     H6R      HEL1     0.150000       1.00800           0
     11601 MEMB     100      SAPS     C27      CTL2    -0.180000       12.0110           0
     11602 MEMB     100      SAPS     H7R      HAL2     0.900000E-01   1.00800           0
     11603 MEMB     100      SAPS     H7S      HAL2     0.900000E-01   1.00800           0
     11604 MEMB     100      SAPS     C28      CEL1    -0.150000       12.0110           0
     11605 MEMB     100      SAPS     H8R      HEL1     0.150000       1.00800           0
     11606 MEMB     100      SAPS     C29      CEL1    -0.150000       12.0110           0
     11607 MEMB     100      SAPS     H9R      HEL1     0.150000       1.00800           0
     11608 MEMB     100      SAPS     C210     CTL2    -0.180000       12.0110           0
     11609 MEMB     100      SAPS     H10R     HAL2     0.900000E-01   1.00800           0
     11610 MEMB     100      SAPS     H10S     HAL2     0.900000E-01   1.00800           0
     11611 MEMB     100      SAPS     C211     CEL1    -0.150000       12.0110           0
     11612 MEMB     100      SAPS     H11R     HEL1     0.150000       1.00800           0
     11613 MEMB     100      SAPS     C212     CEL1    -0.150000       12.0110           0
     11614 MEMB     100      SAPS     H12R     HEL1     0.150000       1.00800           0
     11615 MEMB     100      SAPS     C213     CTL2    -0.180000       12.0110           0
     11616 MEMB     100      SAPS     H13R     HAL2     0.900000E-01   1.00800           0
     11617 MEMB     100      SAPS     H13S     HAL2     0.900000E-01   1.00800           0
     11618 MEMB     100      SAPS     C214     CEL1    -0.150000       12.0110           0
     11619 MEMB     100      SAPS     H14R     HEL1     0.150000       1.00800           0
     11620 MEMB     100      SAPS     C215     CEL1    -0.150000       12.0110           0
     11621 MEMB     100      SAPS     H15R     HEL1     0.150000       1.00800           0
     11622 MEMB     100      SAPS     C216     CTL2    -0.180000       12.0110           0
     11623 MEMB     100      SAPS     H16R     HAL2     0.900000E-01   1.00800           0
     11624 MEMB     100      SAPS     H16S     HAL2     0.900000E-01   1.00800           0
     11625 MEMB     100      SAPS     C217     CTL2    -0.180000       12.0110           0
     11626 MEMB     100      SAPS     H17R     HAL2     0.900000E-01   1.00800           0
     11627 MEMB     100      SAPS     H17S     HAL2     0.900000E-01   1.00800           0
     11628 MEMB     100      SAPS     C218     CTL2    -0.180000       12.0110           0
     11629 MEMB     100      SAPS     H18R     HAL2     0.900000E-01   1.00800           0
     11630 MEMB     100      SAPS     H18S     HAL2     0.900000E-01   1.00800           0
     11631 MEMB     100      SAPS     C219     CTL2    -0.180000       12.0110           0
     11632 MEMB     100      SAPS     H19R     HAL2     0.900000E-01   1.00800           0
     11633 MEMB     100      SAPS     H19S     HAL2     0.900000E-01   1.00800           0
     11634 MEMB     100      SAPS     C220     CTL3    -0.270000       12.0110           0
     11635 MEMB     100      SAPS     H20R     HAL3     0.900000E-01   1.00800           0
     11636 MEMB     100      SAPS     H20S     HAL3     0.900000E-01   1.00800           0
     11637 MEMB     100      SAPS     H20T     HAL3     0.900000E-01   1.00800           0
     11638 MEMB     100      SAPS     C33      CTL2    -0.180000       12.0110           0
     11639 MEMB     100      SAPS     H3X      HAL2     0.900000E-01   1.00800           0
     11640 MEMB     100      SAPS     H3Y      HAL2     0.900000E-01   1.00800           0
     11641 MEMB     100      SAPS     C34      CTL2    -0.180000       12.0110           0
     11642 MEMB     100      SAPS     H4X      HAL2     0.900000E-01   1.00800           0
     11643 MEMB     100      SAPS     H4Y      HAL2     0.900000E-01   1.00800           0
     11644 MEMB     100      SAPS     C35      CTL2    -0.180000       12.0110           0
     11645 MEMB     100      SAPS     H5X      HAL2     0.900000E-01   1.00800           0
     11646 MEMB     100      SAPS     H5Y      HAL2     0.900000E-01   1.00800           0
     11647 MEMB     100      SAPS     C36      CTL2    -0.180000       12.0110           0
     11648 MEMB     100      SAPS     H6X      HAL2     0.900000E-01   1.00800           0
     11649 MEMB     100      SAPS     H6Y      HAL2     0.900000E-01   1.00800           0
     11650 MEMB     100      SAPS     C37      CTL2    -0.180000       12.0110           0
     11651 MEMB     100      SAPS     H7X      HAL2     0.900000E-01   1.00800           0
     11652 MEMB     100      SAPS     H7Y      HAL2     0.900000E-01   1.00800           0
     11653 MEMB     100      SAPS     C38      CTL2    -0.180000       12.0110           0
     11654 MEMB     100      SAPS     H8X      HAL2     0.900000E-01   1.00800           0
     11655 MEMB     100      SAPS     H8Y      HAL2     0.900000E-01   1.00800           0
     11656 MEMB     100      SAPS     C39      CTL2    -0.180000       12.0110           0
     11657 MEMB     100      SAPS     H9X      HAL2     0.900000E-01   1.00800           0
     11658 MEMB     100      SAPS     H9Y      HAL2     0.900000E-01   1.00800           0
     11659 MEMB     100      SAPS     C310     CTL2    -0.180000       12.0110           0
     11660 MEMB     100      SAPS     H10X     HAL2     0.900000E-01   1.00800           0
     11661 MEMB     100      SAPS     H10Y     HAL2     0.900000E-01   1.00800           0
     11662 MEMB     100      SAPS     C311     CTL2    -0.180000       12.0110           0
     11663 MEMB     100      SAPS     H11X     HAL2     0.900000E-01   1.00800           0
     11664 MEMB     100      SAPS     H11Y     HAL2     0.900000E-01   1.00800           0
     11665 MEMB     100      SAPS     C312     CTL2    -0.180000       12.0110           0
     11666 MEMB     100      SAPS     H12X     HAL2     0.900000E-01   1.00800           0
     11667 MEMB     100      SAPS     H12Y     HAL2     0.900000E-01   1.00800           0
     11668 MEMB     100      SAPS     C313     CTL2    -0.180000       12.0110           0
     11669 MEMB     100      SAPS     H13X     HAL2     0.900000E-01   1.00800           0
     11670 MEMB     100      SAPS     H13Y     HAL2     0.900000E-01   1.00800           0
     11671 MEMB     100      SAPS     C314     CTL2    -0.180000       12.0110           0
     11672 MEMB     100      SAPS     H14X     HAL2     0.900000E-01   1.00800           0
     11673 MEMB     100      SAPS     H14Y     HAL2     0.900000E-01   1.00800           0
     11674 MEMB     100      SAPS     C315     CTL2    -0.180000       12.0110           0
     11675 MEMB     100      SAPS     H15X     HAL2     0.900000E-01   1.00800           0
     11676 MEMB     100      SAPS     H15Y     HAL2     0.900000E-01   1.00800           0
     11677 MEMB     100      SAPS     C316     CTL2    -0.180000       12.0110           0
     11678 MEMB     100      SAPS     H16X     HAL2     0.900000E-01   1.00800           0
     11679 MEMB     100      SAPS     H16Y     HAL2     0.900000E-01   1.00800           0
     11680 MEMB     100      SAPS     C317     CTL2    -0.180000       12.0110           0
     11681 MEMB     100      SAPS     H17X     HAL2     0.900000E-01   1.00800           0
     11682 MEMB     100      SAPS     H17Y     HAL2     0.900000E-01   1.00800           0
     11683 MEMB     100      SAPS     C318     CTL3    -0.270000       12.0110           0
     11684 MEMB     100      SAPS     H18X     HAL3     0.900000E-01   1.00800           0
     11685 MEMB     100      SAPS     H18Y     HAL3     0.900000E-01   1.00800           0
     11686 MEMB     100      SAPS     H18Z     HAL3     0.900000E-01   1.00800           0
     11687 MEMB     101      OSM      N        NTL     -0.600000       14.0070           0
     11688 MEMB     101      OSM      C15      CTL5    -0.350000       12.0110           0
     11689 MEMB     101      OSM      H15A     HL       0.250000       1.00800           0
     11690 MEMB     101      OSM      H15B     HL       0.250000       1.00800           0
     11691 MEMB     101      OSM      H15C     HL       0.250000       1.00800           0
     11692 MEMB     101      OSM      C14      CTL5    -0.350000       12.0110           0
     11693 MEMB     101      OSM      H14A     HL       0.250000       1.00800           0
     11694 MEMB     101      OSM      H14B     HL       0.250000       1.00800           0
     11695 MEMB     101      OSM      H14C     HL       0.250000       1.00800           0
     11696 MEMB     101      OSM      C13      CTL5    -0.350000       12.0110           0
     11697 MEMB     101      OSM      H13A     HL       0.250000       1.00800           0
     11698 MEMB     101      OSM      H13B     HL       0.250000       1.00800           0
     11699 MEMB     101      OSM      H13C     HL       0.250000       1.00800           0
     11700 MEMB     101      OSM      C12      CTL2    -0.100000       12.0110           0
     11701 MEMB     101      OSM      H12A     HL       0.250000       1.00800           0
     11702 MEMB     101      OSM      H12B     HL       0.250000       1.00800           0
     11703 MEMB     101      OSM      C11      CTL2    -0.800000E-01   12.0110           0
     11704 MEMB     101      OSM      H11A     HAL2     0.900000E-01   1.00800           0
     11705 MEMB     101      OSM      H11B     HAL2     0.900000E-01   1.00800           0
     11706 MEMB     101      OSM      P        PL        1.50000       30.9740           0
     11707 MEMB     101      OSM      O13      O2L     -0.780000       15.9994           0
     11708 MEMB     101      OSM      O14      O2L     -0.780000       15.9994           0
     11709 MEMB     101      OSM      O11      OSLP    -0.570000       15.9994           0
     11710 MEMB     101      OSM      O12      OSLP    -0.570000       15.9994           0
     11711 MEMB     101      OSM      C1S      CTL2    -0.800000E-01   12.0110           0
     11712 MEMB     101      OSM      H1S      HAL2     0.900000E-01   1.00800           0
     11713 MEMB     101      OSM      H1T      HAL2     0.900000E-01   1.00800           0
     11714 MEMB     101      OSM      NF       NHL     -0.700000       14.0070           0
     11715 MEMB     101      OSM      HNF      H        0.350000       1.00800           0
     11716 MEMB     101      OSM      C2S      CTL1     0.300000       12.0110           0
     11717 MEMB     101      OSM      H2S      HAL1     0.500000E-01   1.00800           0
     11718 MEMB     101      OSM      C3S      CTO1     0.500000       12.0110           0
     11719 MEMB     101      OSM      H3S      HAL1    -0.110000       1.00800           0
     11720 MEMB     101      OSM      O3       OHL     -0.690000       15.9994           0
     11721 MEMB     101      OSM      HO3      HOL      0.300000       1.00800           0
     11722 MEMB     101      OSM      C4S      CEL3    -0.150000       12.0110           0
     11723 MEMB     101      OSM      H4S      HEL1     0.150000       1.00800           0
     11724 MEMB     101      OSM      C5S      CEL3    -0.150000       12.0110           0
     11725 MEMB     101      OSM      H5S      HEL1     0.150000       1.00800           0
     11726 MEMB     101      OSM      C6S      CTL2    -0.180000       12.0110           0
     11727 MEMB     101      OSM      H6S      HAL2     0.900000E-01   1.00800           0
     11728 MEMB     101      OSM      H6T      HAL2     0.900000E-01   1.00800           0
     11729 MEMB     101      OSM      C7S      CTL2    -0.180000       12.0110           0
     11730 MEMB     101      OSM      H7S      HAL2     0.900000E-01   1.00800           0
     11731 MEMB     101      OSM      H7T      HAL2     0.900000E-01   1.00800           0
     11732 MEMB     101      OSM      C8S      CTL2    -0.180000       12.0110           0
     11733 MEMB     101      OSM      H8S      HAL2     0.900000E-01   1.00800           0
     11734 MEMB     101      OSM      H8T      HAL2     0.900000E-01   1.00800           0
     11735 MEMB     101      OSM      C9S      CTL2    -0.180000       12.0110           0
     11736 MEMB     101      OSM      H9S      HAL2     0.900000E-01   1.00800           0
     11737 MEMB     101      OSM      H9T      HAL2     0.900000E-01   1.00800           0
     11738 MEMB     101      OSM      C10S     CTL2    -0.180000       12.0110           0
     11739 MEMB     101      OSM      H10S     HAL2     0.900000E-01   1.00800           0
     11740 MEMB     101      OSM      H10T     HAL2     0.900000E-01   1.00800           0
     11741 MEMB     101      OSM      C11S     CTL2    -0.180000       12.0110           0
     11742 MEMB     101      OSM      H11S     HAL2     0.900000E-01   1.00800           0
     11743 MEMB     101      OSM      H11T     HAL2     0.900000E-01   1.00800           0
     11744 MEMB     101      OSM      C12S     CTL2    -0.180000       12.0110           0
     11745 MEMB     101      OSM      H12S     HAL2     0.900000E-01   1.00800           0
     11746 MEMB     101      OSM      H12T     HAL2     0.900000E-01   1.00800           0
     11747 MEMB     101      OSM      C13S     CTL2    -0.180000       12.0110           0
     11748 MEMB     101      OSM      H13S     HAL2     0.900000E-01   1.00800           0
     11749 MEMB     101      OSM      H13T     HAL2     0.900000E-01   1.00800           0
     11750 MEMB     101      OSM      C14S     CTL2    -0.180000       12.0110           0
     11751 MEMB     101      OSM      H14S     HAL2     0.900000E-01   1.00800           0
     11752 MEMB     101      OSM      H14T     HAL2     0.900000E-01   1.00800           0
     11753 MEMB     101      OSM      C15S     CTL2    -0.180000       12.0110           0
     11754 MEMB     101      OSM      H15S     HAL2     0.900000E-01   1.00800           0
     11755 MEMB     101      OSM      H15T     HAL2     0.900000E-01   1.00800           0
     11756 MEMB     101      OSM      C16S     CTL2    -0.180000       12.0110           0
     11757 MEMB     101      OSM      H16S     HAL2     0.900000E-01   1.00800           0
     11758 MEMB     101      OSM      H16T     HAL2     0.900000E-01   1.00800           0
     11759 MEMB     101      OSM      C17S     CTL2    -0.180000       12.0110           0
     11760 MEMB     101      OSM      H17S     HAL2     0.900000E-01   1.00800           0
     11761 MEMB     101      OSM      H17T     HAL2     0.900000E-01   1.00800           0
     11762 MEMB     101      OSM      C18S     CTL3    -0.270000       12.0110           0
     11763 MEMB     101      OSM      H18S     HAL3     0.900000E-01   1.00800           0
     11764 MEMB     101      OSM      H18T     HAL3     0.900000E-01   1.00800           0
     11765 MEMB     101      OSM      H18U     HAL3     0.900000E-01   1.00800           0
     11766 MEMB     101      OSM      C1F      C        0.550000       12.0110           0
     11767 MEMB     101      OSM      OF       O       -0.600000       15.9994           0
     11768 MEMB     101      OSM      C2F      CTL2    -0.700000E-01   12.0110           0
     11769 MEMB     101      OSM      H2F      HAL2     0.600000E-01   1.00800           0
     11770 MEMB     101      OSM      H2G      HAL2     0.600000E-01   1.00800           0
     11771 MEMB     101      OSM      C3F      CTL2    -0.180000       12.0110           0
     11772 MEMB     101      OSM      H3F      HAL2     0.900000E-01   1.00800           0
     11773 MEMB     101      OSM      H3G      HAL2     0.900000E-01   1.00800           0
     11774 MEMB     101      OSM      C4F      CTL2    -0.180000       12.0110           0
     11775 MEMB     101      OSM      H4F      HAL2     0.900000E-01   1.00800           0
     11776 MEMB     101      OSM      H4G      HAL2     0.900000E-01   1.00800           0
     11777 MEMB     101      OSM      C5F      CTL2    -0.180000       12.0110           0
     11778 MEMB     101      OSM      H5F      HAL2     0.900000E-01   1.00800           0
     11779 MEMB     101      OSM      H5G      HAL2     0.900000E-01   1.00800           0
     11780 MEMB     101      OSM      C6F      CTL2    -0.180000       12.0110           0
     11781 MEMB     101      OSM      H6F      HAL2     0.900000E-01   1.00800           0
     11782 MEMB     101      OSM      H6G      HAL2     0.900000E-01   1.00800           0
     11783 MEMB     101      OSM      C7F      CTL2    -0.180000       12.0110           0
     11784 MEMB     101      OSM      H7F      HAL2     0.900000E-01   1.00800           0
     11785 MEMB     101      OSM      H7G      HAL2     0.900000E-01   1.00800           0
     11786 MEMB     101      OSM      C8F      CTL2    -0.180000       12.0110           0
     11787 MEMB     101      OSM      H8F      HAL2     0.900000E-01   1.00800           0
     11788 MEMB     101      OSM      H8G      HAL2     0.900000E-01   1.00800           0
     11789 MEMB     101      OSM      C9F      CEL1    -0.150000       12.0110           0
     11790 MEMB     101      OSM      H9F      HEL1     0.150000       1.00800           0
     11791 MEMB     101      OSM      C10F     CEL1    -0.150000       12.0110           0
     11792 MEMB     101      OSM      H10F     HEL1     0.150000       1.00800           0
     11793 MEMB     101      OSM      C11F     CTL2    -0.180000       12.0110           0
     11794 MEMB     101      OSM      H11F     HAL2     0.900000E-01   1.00800           0
     11795 MEMB     101      OSM      H11G     HAL2     0.900000E-01   1.00800           0
     11796 MEMB     101      OSM      C12F     CTL2    -0.180000       12.0110           0
     11797 MEMB     101      OSM      H12F     HAL2     0.900000E-01   1.00800           0
     11798 MEMB     101      OSM      H12G     HAL2     0.900000E-01   1.00800           0
     11799 MEMB     101      OSM      C13F     CTL2    -0.180000       12.0110           0
     11800 MEMB     101      OSM      H13F     HAL2     0.900000E-01   1.00800           0
     11801 MEMB     101      OSM      H13G     HAL2     0.900000E-01   1.00800           0
     11802 MEMB     101      OSM      C14F     CTL2    -0.180000       12.0110           0
     11803 MEMB     101      OSM      H14F     HAL2     0.900000E-01   1.00800           0
     11804 MEMB     101      OSM      H14G     HAL2     0.900000E-01   1.00800           0
     11805 MEMB     101      OSM      C15F     CTL2    -0.180000       12.0110           0
     11806 MEMB     101      OSM      H15F     HAL2     0.900000E-01   1.00800           0
     11807 MEMB     101      OSM      H15G     HAL2     0.900000E-01   1.00800           0
     11808 MEMB     101      OSM      C16F     CTL2    -0.180000       12.0110           0
     11809 MEMB     101      OSM      H16F     HAL2     0.900000E-01   1.00800           0
     11810 MEMB     101      OSM      H16G     HAL2     0.900000E-01   1.00800           0
     11811 MEMB     101      OSM      C17F     CTL2    -0.180000       12.0110           0
     11812 MEMB     101      OSM      H17F     HAL2     0.900000E-01   1.00800           0
     11813 MEMB     101      OSM      H17G     HAL2     0.900000E-01   1.00800           0
     11814 MEMB     101      OSM      C18F     CTL3    -0.270000       12.0110           0
     11815 MEMB     101      OSM      H18F     HAL3     0.900000E-01   1.00800           0
     11816 MEMB     101      OSM      H18G     HAL3     0.900000E-01   1.00800           0
     11817 MEMB     101      OSM      H18H     HAL3     0.900000E-01   1.00800           0
     11818 MEMB     102      POPC     N        NTL     -0.600000       14.0070           0
     11819 MEMB     102      POPC     C12      CTL2    -0.100000       12.0110           0
     11820 MEMB     102      POPC     H12A     HL       0.250000       1.00800           0
     11821 MEMB     102      POPC     H12B     HL       0.250000       1.00800           0
     11822 MEMB     102      POPC     C13      CTL5    -0.350000       12.0110           0
     11823 MEMB     102      POPC     H13A     HL       0.250000       1.00800           0
     11824 MEMB     102      POPC     H13B     HL       0.250000       1.00800           0
     11825 MEMB     102      POPC     H13C     HL       0.250000       1.00800           0
     11826 MEMB     102      POPC     C14      CTL5    -0.350000       12.0110           0
     11827 MEMB     102      POPC     H14A     HL       0.250000       1.00800           0
     11828 MEMB     102      POPC     H14B     HL       0.250000       1.00800           0
     11829 MEMB     102      POPC     H14C     HL       0.250000       1.00800           0
     11830 MEMB     102      POPC     C15      CTL5    -0.350000       12.0110           0
     11831 MEMB     102      POPC     H15A     HL       0.250000       1.00800           0
     11832 MEMB     102      POPC     H15B     HL       0.250000       1.00800           0
     11833 MEMB     102      POPC     H15C     HL       0.250000       1.00800           0
     11834 MEMB     102      POPC     C11      CTL2    -0.800000E-01   12.0110           0
     11835 MEMB     102      POPC     H11A     HAL2     0.900000E-01   1.00800           0
     11836 MEMB     102      POPC     H11B     HAL2     0.900000E-01   1.00800           0
     11837 MEMB     102      POPC     P        PL        1.50000       30.9740           0
     11838 MEMB     102      POPC     O13      O2L     -0.780000       15.9994           0
     11839 MEMB     102      POPC     O14      O2L     -0.780000       15.9994           0
     11840 MEMB     102      POPC     O12      OSLP    -0.570000       15.9994           0
     11841 MEMB     102      POPC     O11      OSLP    -0.570000       15.9994           0
     11842 MEMB     102      POPC     C1       CTL2    -0.800000E-01   12.0110           0
     11843 MEMB     102      POPC     HA       HAL2     0.900000E-01   1.00800           0
     11844 MEMB     102      POPC     HB       HAL2     0.900000E-01   1.00800           0
     11845 MEMB     102      POPC     C2       CTL1     0.170000       12.0110           0
     11846 MEMB     102      POPC     HS       HAL1     0.900000E-01   1.00800           0
     11847 MEMB     102      POPC     O21      OSL     -0.490000       15.9994           0
     11848 MEMB     102      POPC     C21      CL       0.900000       12.0110           0
     11849 MEMB     102      POPC     O22      OBL     -0.630000       15.9994           0
     11850 MEMB     102      POPC     C22      CTL2    -0.220000       12.0110           0
     11851 MEMB     102      POPC     H2R      HAL2     0.900000E-01   1.00800           0
     11852 MEMB     102      POPC     H2S      HAL2     0.900000E-01   1.00800           0
     11853 MEMB     102      POPC     C3       CTL2     0.800000E-01   12.0110           0
     11854 MEMB     102      POPC     HX       HAL2     0.900000E-01   1.00800           0
     11855 MEMB     102      POPC     HY       HAL2     0.900000E-01   1.00800           0
     11856 MEMB     102      POPC     O31      OSL     -0.490000       15.9994           0
     11857 MEMB     102      POPC     C31      CL       0.900000       12.0110           0
     11858 MEMB     102      POPC     O32      OBL     -0.630000       15.9994           0
     11859 MEMB     102      POPC     C32      CTL2    -0.220000       12.0110           0
     11860 MEMB     102      POPC     H2X      HAL2     0.900000E-01   1.00800           0
     11861 MEMB     102      POPC     H2Y      HAL2     0.900000E-01   1.00800           0
     11862 MEMB     102      POPC     C23      CTL2    -0.180000       12.0110           0
     11863 MEMB     102      POPC     H3R      HAL2     0.900000E-01   1.00800           0
     11864 MEMB     102      POPC     H3S      HAL2     0.900000E-01   1.00800           0
     11865 MEMB     102      POPC     C24      CTL2    -0.180000       12.0110           0
     11866 MEMB     102      POPC     H4R      HAL2     0.900000E-01   1.00800           0
     11867 MEMB     102      POPC     H4S      HAL2     0.900000E-01   1.00800           0
     11868 MEMB     102      POPC     C25      CTL2    -0.180000       12.0110           0
     11869 MEMB     102      POPC     H5R      HAL2     0.900000E-01   1.00800           0
     11870 MEMB     102      POPC     H5S      HAL2     0.900000E-01   1.00800           0
     11871 MEMB     102      POPC     C26      CTL2    -0.180000       12.0110           0
     11872 MEMB     102      POPC     H6R      HAL2     0.900000E-01   1.00800           0
     11873 MEMB     102      POPC     H6S      HAL2     0.900000E-01   1.00800           0
     11874 MEMB     102      POPC     C27      CTL2    -0.180000       12.0110           0
     11875 MEMB     102      POPC     H7R      HAL2     0.900000E-01   1.00800           0
     11876 MEMB     102      POPC     H7S      HAL2     0.900000E-01   1.00800           0
     11877 MEMB     102      POPC     C28      CTL2    -0.180000       12.0110           0
     11878 MEMB     102      POPC     H8R      HAL2     0.900000E-01   1.00800           0
     11879 MEMB     102      POPC     H8S      HAL2     0.900000E-01   1.00800           0
     11880 MEMB     102      POPC     C29      CEL1    -0.150000       12.0110           0
     11881 MEMB     102      POPC     H91      HEL1     0.150000       1.00800           0
     11882 MEMB     102      POPC     C210     CEL1    -0.150000       12.0110           0
     11883 MEMB     102      POPC     H101     HEL1     0.150000       1.00800           0
     11884 MEMB     102      POPC     C211     CTL2    -0.180000       12.0110           0
     11885 MEMB     102      POPC     H11R     HAL2     0.900000E-01   1.00800           0
     11886 MEMB     102      POPC     H11S     HAL2     0.900000E-01   1.00800           0
     11887 MEMB     102      POPC     C212     CTL2    -0.180000       12.0110           0
     11888 MEMB     102      POPC     H12R     HAL2     0.900000E-01   1.00800           0
     11889 MEMB     102      POPC     H12S     HAL2     0.900000E-01   1.00800           0
     11890 MEMB     102      POPC     C213     CTL2    -0.180000       12.0110           0
     11891 MEMB     102      POPC     H13R     HAL2     0.900000E-01   1.00800           0
     11892 MEMB     102      POPC     H13S     HAL2     0.900000E-01   1.00800           0
     11893 MEMB     102      POPC     C214     CTL2    -0.180000       12.0110           0
     11894 MEMB     102      POPC     H14R     HAL2     0.900000E-01   1.00800           0
     11895 MEMB     102      POPC     H14S     HAL2     0.900000E-01   1.00800           0
     11896 MEMB     102      POPC     C215     CTL2    -0.180000       12.0110           0
     11897 MEMB     102      POPC     H15R     HAL2     0.900000E-01   1.00800           0
     11898 MEMB     102      POPC     H15S     HAL2     0.900000E-01   1.00800           0
     11899 MEMB     102      POPC     C216     CTL2    -0.180000       12.0110           0
     11900 MEMB     102      POPC     H16R     HAL2     0.900000E-01   1.00800           0
     11901 MEMB     102      POPC     H16S     HAL2     0.900000E-01   1.00800           0
     11902 MEMB     102      POPC     C217     CTL2    -0.180000       12.0110           0
     11903 MEMB     102      POPC     H17R     HAL2     0.900000E-01   1.00800           0
     11904 MEMB     102      POPC     H17S     HAL2     0.900000E-01   1.00800           0
     11905 MEMB     102      POPC     C218     CTL3    -0.270000       12.0110           0
     11906 MEMB     102      POPC     H18R     HAL3     0.900000E-01   1.00800           0
     11907 MEMB     102      POPC     H18S     HAL3     0.900000E-01   1.00800           0
     11908 MEMB     102      POPC     H18T     HAL3     0.900000E-01   1.00800           0
     11909 MEMB     102      POPC     C33      CTL2    -0.180000       12.0110           0
     11910 MEMB     102      POPC     H3X      HAL2     0.900000E-01   1.00800           0
     11911 MEMB     102      POPC     H3Y      HAL2     0.900000E-01   1.00800           0
     11912 MEMB     102      POPC     C34      CTL2    -0.180000       12.0110           0
     11913 MEMB     102      POPC     H4X      HAL2     0.900000E-01   1.00800           0
     11914 MEMB     102      POPC     H4Y      HAL2     0.900000E-01   1.00800           0
     11915 MEMB     102      POPC     C35      CTL2    -0.180000       12.0110           0
     11916 MEMB     102      POPC     H5X      HAL2     0.900000E-01   1.00800           0
     11917 MEMB     102      POPC     H5Y      HAL2     0.900000E-01   1.00800           0
     11918 MEMB     102      POPC     C36      CTL2    -0.180000       12.0110           0
     11919 MEMB     102      POPC     H6X      HAL2     0.900000E-01   1.00800           0
     11920 MEMB     102      POPC     H6Y      HAL2     0.900000E-01   1.00800           0
     11921 MEMB     102      POPC     C37      CTL2    -0.180000       12.0110           0
     11922 MEMB     102      POPC     H7X      HAL2     0.900000E-01   1.00800           0
     11923 MEMB     102      POPC     H7Y      HAL2     0.900000E-01   1.00800           0
     11924 MEMB     102      POPC     C38      CTL2    -0.180000       12.0110           0
     11925 MEMB     102      POPC     H8X      HAL2     0.900000E-01   1.00800           0
     11926 MEMB     102      POPC     H8Y      HAL2     0.900000E-01   1.00800           0
     11927 MEMB     102      POPC     C39      CTL2    -0.180000       12.0110           0
     11928 MEMB     102      POPC     H9X      HAL2     0.900000E-01   1.00800           0
     11929 MEMB     102      POPC     H9Y      HAL2     0.900000E-01   1.00800           0
     11930 MEMB     102      POPC     C310     CTL2    -0.180000       12.0110           0
     11931 MEMB     102      POPC     H10X     HAL2     0.900000E-01   1.00800           0
     11932 MEMB     102      POPC     H10Y     HAL2     0.900000E-01   1.00800           0
     11933 MEMB     102      POPC     C311     CTL2    -0.180000       12.0110           0
     11934 MEMB     102      POPC     H11X     HAL2     0.900000E-01   1.00800           0
     11935 MEMB     102      POPC     H11Y     HAL2     0.900000E-01   1.00800           0
     11936 MEMB     102      POPC     C312     CTL2    -0.180000       12.0110           0
     11937 MEMB     102      POPC     H12X     HAL2     0.900000E-01   1.00800           0
     11938 MEMB     102      POPC     H12Y     HAL2     0.900000E-01   1.00800           0
     11939 MEMB     102      POPC     C313     CTL2    -0.180000       12.0110           0
     11940 MEMB     102      POPC     H13X     HAL2     0.900000E-01   1.00800           0
     11941 MEMB     102      POPC     H13Y     HAL2     0.900000E-01   1.00800           0
     11942 MEMB     102      POPC     C314     CTL2    -0.180000       12.0110           0
     11943 MEMB     102      POPC     H14X     HAL2     0.900000E-01   1.00800           0
     11944 MEMB     102      POPC     H14Y     HAL2     0.900000E-01   1.00800           0
     11945 MEMB     102      POPC     C315     CTL2    -0.180000       12.0110           0
     11946 MEMB     102      POPC     H15X     HAL2     0.900000E-01   1.00800           0
     11947 MEMB     102      POPC     H15Y     HAL2     0.900000E-01   1.00800           0
     11948 MEMB     102      POPC     C316     CTL3    -0.270000       12.0110           0
     11949 MEMB     102      POPC     H16X     HAL3     0.900000E-01   1.00800           0
     11950 MEMB     102      POPC     H16Y     HAL3     0.900000E-01   1.00800           0
     11951 MEMB     102      POPC     H16Z     HAL3     0.900000E-01   1.00800           0
     11952 MEMB     103      SAPC     N        NTL     -0.600000       14.0070           0
     11953 MEMB     103      SAPC     C12      CTL2    -0.100000       12.0110           0
     11954 MEMB     103      SAPC     H12A     HL       0.250000       1.00800           0
     11955 MEMB     103      SAPC     H12B     HL       0.250000       1.00800           0
     11956 MEMB     103      SAPC     C13      CTL5    -0.350000       12.0110           0
     11957 MEMB     103      SAPC     H13A     HL       0.250000       1.00800           0
     11958 MEMB     103      SAPC     H13B     HL       0.250000       1.00800           0
     11959 MEMB     103      SAPC     H13C     HL       0.250000       1.00800           0
     11960 MEMB     103      SAPC     C14      CTL5    -0.350000       12.0110           0
     11961 MEMB     103      SAPC     H14A     HL       0.250000       1.00800           0
     11962 MEMB     103      SAPC     H14B     HL       0.250000       1.00800           0
     11963 MEMB     103      SAPC     H14C     HL       0.250000       1.00800           0
     11964 MEMB     103      SAPC     C15      CTL5    -0.350000       12.0110           0
     11965 MEMB     103      SAPC     H15A     HL       0.250000       1.00800           0
     11966 MEMB     103      SAPC     H15B     HL       0.250000       1.00800           0
     11967 MEMB     103      SAPC     H15C     HL       0.250000       1.00800           0
     11968 MEMB     103      SAPC     C11      CTL2    -0.800000E-01   12.0110           0
     11969 MEMB     103      SAPC     H11A     HAL2     0.900000E-01   1.00800           0
     11970 MEMB     103      SAPC     H11B     HAL2     0.900000E-01   1.00800           0
     11971 MEMB     103      SAPC     P        PL        1.50000       30.9740           0
     11972 MEMB     103      SAPC     O13      O2L     -0.780000       15.9994           0
     11973 MEMB     103      SAPC     O14      O2L     -0.780000       15.9994           0
     11974 MEMB     103      SAPC     O12      OSLP    -0.570000       15.9994           0
     11975 MEMB     103      SAPC     O11      OSLP    -0.570000       15.9994           0
     11976 MEMB     103      SAPC     C1       CTL2    -0.800000E-01   12.0110           0
     11977 MEMB     103      SAPC     HA       HAL2     0.900000E-01   1.00800           0
     11978 MEMB     103      SAPC     HB       HAL2     0.900000E-01   1.00800           0
     11979 MEMB     103      SAPC     C2       CTL1     0.170000       12.0110           0
     11980 MEMB     103      SAPC     HS       HAL1     0.900000E-01   1.00800           0
     11981 MEMB     103      SAPC     O21      OSL     -0.490000       15.9994           0
     11982 MEMB     103      SAPC     C21      CL       0.900000       12.0110           0
     11983 MEMB     103      SAPC     O22      OBL     -0.630000       15.9994           0
     11984 MEMB     103      SAPC     C22      CTL2    -0.220000       12.0110           0
     11985 MEMB     103      SAPC     H2R      HAL2     0.900000E-01   1.00800           0
     11986 MEMB     103      SAPC     H2S      HAL2     0.900000E-01   1.00800           0
     11987 MEMB     103      SAPC     C3       CTL2     0.800000E-01   12.0110           0
     11988 MEMB     103      SAPC     HX       HAL2     0.900000E-01   1.00800           0
     11989 MEMB     103      SAPC     HY       HAL2     0.900000E-01   1.00800           0
     11990 MEMB     103      SAPC     O31      OSL     -0.490000       15.9994           0
     11991 MEMB     103      SAPC     C31      CL       0.900000       12.0110           0
     11992 MEMB     103      SAPC     O32      OBL     -0.630000       15.9994           0
     11993 MEMB     103      SAPC     C32      CTL2    -0.220000       12.0110           0
     11994 MEMB     103      SAPC     H2X      HAL2     0.900000E-01   1.00800           0
     11995 MEMB     103      SAPC     H2Y      HAL2     0.900000E-01   1.00800           0
     11996 MEMB     103      SAPC     C23      CTL2    -0.180000       12.0110           0
     11997 MEMB     103      SAPC     H3R      HAL2     0.900000E-01   1.00800           0
     11998 MEMB     103      SAPC     H3S      HAL2     0.900000E-01   1.00800           0
     11999 MEMB     103      SAPC     C24      CTL2    -0.180000       12.0110           0
     12000 MEMB     103      SAPC     H4R      HAL2     0.900000E-01   1.00800           0
     12001 MEMB     103      SAPC     H4S      HAL2     0.900000E-01   1.00800           0
     12002 MEMB     103      SAPC     C25      CEL1    -0.150000       12.0110           0
     12003 MEMB     103      SAPC     H5R      HEL1     0.150000       1.00800           0
     12004 MEMB     103      SAPC     C26      CEL1    -0.150000       12.0110           0
     12005 MEMB     103      SAPC     H6R      HEL1     0.150000       1.00800           0
     12006 MEMB     103      SAPC     C27      CTL2    -0.180000       12.0110           0
     12007 MEMB     103      SAPC     H7R      HAL2     0.900000E-01   1.00800           0
     12008 MEMB     103      SAPC     H7S      HAL2     0.900000E-01   1.00800           0
     12009 MEMB     103      SAPC     C28      CEL1    -0.150000       12.0110           0
     12010 MEMB     103      SAPC     H8R      HEL1     0.150000       1.00800           0
     12011 MEMB     103      SAPC     C29      CEL1    -0.150000       12.0110           0
     12012 MEMB     103      SAPC     H9R      HEL1     0.150000       1.00800           0
     12013 MEMB     103      SAPC     C210     CTL2    -0.180000       12.0110           0
     12014 MEMB     103      SAPC     H10R     HAL2     0.900000E-01   1.00800           0
     12015 MEMB     103      SAPC     H10S     HAL2     0.900000E-01   1.00800           0
     12016 MEMB     103      SAPC     C211     CEL1    -0.150000       12.0110           0
     12017 MEMB     103      SAPC     H11R     HEL1     0.150000       1.00800           0
     12018 MEMB     103      SAPC     C212     CEL1    -0.150000       12.0110           0
     12019 MEMB     103      SAPC     H12R     HEL1     0.150000       1.00800           0
     12020 MEMB     103      SAPC     C213     CTL2    -0.180000       12.0110           0
     12021 MEMB     103      SAPC     H13R     HAL2     0.900000E-01   1.00800           0
     12022 MEMB     103      SAPC     H13S     HAL2     0.900000E-01   1.00800           0
     12023 MEMB     103      SAPC     C214     CEL1    -0.150000       12.0110           0
     12024 MEMB     103      SAPC     H14R     HEL1     0.150000       1.00800           0
     12025 MEMB     103      SAPC     C215     CEL1    -0.150000       12.0110           0
     12026 MEMB     103      SAPC     H15R     HEL1     0.150000       1.00800           0
     12027 MEMB     103      SAPC     C216     CTL2    -0.180000       12.0110           0
     12028 MEMB     103      SAPC     H16R     HAL2     0.900000E-01   1.00800           0
     12029 MEMB     103      SAPC     H16S     HAL2     0.900000E-01   1.00800           0
     12030 MEMB     103      SAPC     C217     CTL2    -0.180000       12.0110           0
     12031 MEMB     103      SAPC     H17R     HAL2     0.900000E-01   1.00800           0
     12032 MEMB     103      SAPC     H17S     HAL2     0.900000E-01   1.00800           0
     12033 MEMB     103      SAPC     C218     CTL2    -0.270000       12.0110           0
     12034 MEMB     103      SAPC     H18R     HAL2     0.900000E-01   1.00800           0
     12035 MEMB     103      SAPC     H18S     HAL2     0.900000E-01   1.00800           0
     12036 MEMB     103      SAPC     C219     CTL2    -0.180000       12.0110           0
     12037 MEMB     103      SAPC     H19R     HAL2     0.900000E-01   1.00800           0
     12038 MEMB     103      SAPC     H19S     HAL2     0.900000E-01   1.00800           0
     12039 MEMB     103      SAPC     C220     CTL3    -0.180000       12.0110           0
     12040 MEMB     103      SAPC     H20R     HAL3     0.900000E-01   1.00800           0
     12041 MEMB     103      SAPC     H20S     HAL3     0.900000E-01   1.00800           0
     12042 MEMB     103      SAPC     H20T     HAL3     0.900000E-01   1.00800           0
     12043 MEMB     103      SAPC     C33      CTL2    -0.180000       12.0110           0
     12044 MEMB     103      SAPC     H3X      HAL2     0.900000E-01   1.00800           0
     12045 MEMB     103      SAPC     H3Y      HAL2     0.900000E-01   1.00800           0
     12046 MEMB     103      SAPC     C34      CTL2    -0.180000       12.0110           0
     12047 MEMB     103      SAPC     H4X      HAL2     0.900000E-01   1.00800           0
     12048 MEMB     103      SAPC     H4Y      HAL2     0.900000E-01   1.00800           0
     12049 MEMB     103      SAPC     C35      CTL2    -0.180000       12.0110           0
     12050 MEMB     103      SAPC     H5X      HAL2     0.900000E-01   1.00800           0
     12051 MEMB     103      SAPC     H5Y      HAL2     0.900000E-01   1.00800           0
     12052 MEMB     103      SAPC     C36      CTL2    -0.180000       12.0110           0
     12053 MEMB     103      SAPC     H6X      HAL2     0.900000E-01   1.00800           0
     12054 MEMB     103      SAPC     H6Y      HAL2     0.900000E-01   1.00800           0
     12055 MEMB     103      SAPC     C37      CTL2    -0.180000       12.0110           0
     12056 MEMB     103      SAPC     H7X      HAL2     0.900000E-01   1.00800           0
     12057 MEMB     103      SAPC     H7Y      HAL2     0.900000E-01   1.00800           0
     12058 MEMB     103      SAPC     C38      CTL2    -0.180000       12.0110           0
     12059 MEMB     103      SAPC     H8X      HAL2     0.900000E-01   1.00800           0
     12060 MEMB     103      SAPC     H8Y      HAL2     0.900000E-01   1.00800           0
     12061 MEMB     103      SAPC     C39      CTL2    -0.180000       12.0110           0
     12062 MEMB     103      SAPC     H9X      HAL2     0.900000E-01   1.00800           0
     12063 MEMB     103      SAPC     H9Y      HAL2     0.900000E-01   1.00800           0
     12064 MEMB     103      SAPC     C310     CTL2    -0.180000       12.0110           0
     12065 MEMB     103      SAPC     H10X     HAL2     0.900000E-01   1.00800           0
     12066 MEMB     103      SAPC     H10Y     HAL2     0.900000E-01   1.00800           0
     12067 MEMB     103      SAPC     C311     CTL2    -0.180000       12.0110           0
     12068 MEMB     103      SAPC     H11X     HAL2     0.900000E-01   1.00800           0
     12069 MEMB     103      SAPC     H11Y     HAL2     0.900000E-01   1.00800           0
     12070 MEMB     103      SAPC     C312     CTL2    -0.180000       12.0110           0
     12071 MEMB     103      SAPC     H12X     HAL2     0.900000E-01   1.00800           0
     12072 MEMB     103      SAPC     H12Y     HAL2     0.900000E-01   1.00800           0
     12073 MEMB     103      SAPC     C313     CTL2    -0.180000       12.0110           0
     12074 MEMB     103      SAPC     H13X     HAL2     0.900000E-01   1.00800           0
     12075 MEMB     103      SAPC     H13Y     HAL2     0.900000E-01   1.00800           0
     12076 MEMB     103      SAPC     C314     CTL2    -0.180000       12.0110           0
     12077 MEMB     103      SAPC     H14X     HAL2     0.900000E-01   1.00800           0
     12078 MEMB     103      SAPC     H14Y     HAL2     0.900000E-01   1.00800           0
     12079 MEMB     103      SAPC     C315     CTL2    -0.180000       12.0110           0
     12080 MEMB     103      SAPC     H15X     HAL2     0.900000E-01   1.00800           0
     12081 MEMB     103      SAPC     H15Y     HAL2     0.900000E-01   1.00800           0
     12082 MEMB     103      SAPC     C316     CTL2    -0.180000       12.0110           0
     12083 MEMB     103      SAPC     H16X     HAL2     0.900000E-01   1.00800           0
     12084 MEMB     103      SAPC     H16Y     HAL2     0.900000E-01   1.00800           0
     12085 MEMB     103      SAPC     C317     CTL2    -0.180000       12.0110           0
     12086 MEMB     103      SAPC     H17X     HAL2     0.900000E-01   1.00800           0
     12087 MEMB     103      SAPC     H17Y     HAL2     0.900000E-01   1.00800           0
     12088 MEMB     103      SAPC     C318     CTL3    -0.270000       12.0110           0
     12089 MEMB     103      SAPC     H18X     HAL3     0.900000E-01   1.00800           0
     12090 MEMB     103      SAPC     H18Y     HAL3     0.900000E-01   1.00800           0
     12091 MEMB     103      SAPC     H18Z     HAL3     0.900000E-01   1.00800           0
     12092 MEMB     104      CHL1     C3       CRL1     0.140000       12.0110           0
     12093 MEMB     104      CHL1     H3       HGA1     0.900000E-01   1.00800           0
     12094 MEMB     104      CHL1     O3       OHL     -0.660000       15.9994           0
     12095 MEMB     104      CHL1     H3'      HOL      0.430000       1.00800           0
     12096 MEMB     104      CHL1     C4       CRL2    -0.180000       12.0110           0
     12097 MEMB     104      CHL1     H4A      HGA2     0.900000E-01   1.00800           0
     12098 MEMB     104      CHL1     H4B      HGA2     0.900000E-01   1.00800           0
     12099 MEMB     104      CHL1     C5       CEL1      0.00000       12.0110           0
     12100 MEMB     104      CHL1     C6       CEL1    -0.150000       12.0110           0
     12101 MEMB     104      CHL1     H6       HEL1     0.150000       1.00800           0
     12102 MEMB     104      CHL1     C7       CRL2    -0.180000       12.0110           0
     12103 MEMB     104      CHL1     H7A      HGA2     0.900000E-01   1.00800           0
     12104 MEMB     104      CHL1     H7B      HGA2     0.900000E-01   1.00800           0
     12105 MEMB     104      CHL1     C8       CRL1    -0.900000E-01   12.0110           0
     12106 MEMB     104      CHL1     H8       HGA1     0.900000E-01   1.00800           0
     12107 MEMB     104      CHL1     C14      CRL1    -0.900000E-01   12.0110           0
     12108 MEMB     104      CHL1     H14      HGA1     0.900000E-01   1.00800           0
     12109 MEMB     104      CHL1     C15      CRL2    -0.180000       12.0110           0
     12110 MEMB     104      CHL1     H15A     HGA2     0.900000E-01   1.00800           0
     12111 MEMB     104      CHL1     H15B     HGA2     0.900000E-01   1.00800           0
     12112 MEMB     104      CHL1     C16      CRL2    -0.180000       12.0110           0
     12113 MEMB     104      CHL1     H16A     HGA2     0.900000E-01   1.00800           0
     12114 MEMB     104      CHL1     H16B     HGA2     0.900000E-01   1.00800           0
     12115 MEMB     104      CHL1     C17      CRL1    -0.900000E-01   12.0110           0
     12116 MEMB     104      CHL1     H17      HGA1     0.900000E-01   1.00800           0
     12117 MEMB     104      CHL1     C13      CRL1      0.00000       12.0110           0
     12118 MEMB     104      CHL1     C18      CTL3    -0.270000       12.0110           0
     12119 MEMB     104      CHL1     H18A     HAL3     0.900000E-01   1.00800           0
     12120 MEMB     104      CHL1     H18B     HAL3     0.900000E-01   1.00800           0
     12121 MEMB     104      CHL1     H18C     HAL3     0.900000E-01   1.00800           0
     12122 MEMB     104      CHL1     C12      CRL2    -0.180000       12.0110           0
     12123 MEMB     104      CHL1     H12A     HGA2     0.900000E-01   1.00800           0
     12124 MEMB     104      CHL1     H12B     HGA2     0.900000E-01   1.00800           0
     12125 MEMB     104      CHL1     C11      CRL2    -0.180000       12.0110           0
     12126 MEMB     104      CHL1     H11A     HGA2     0.900000E-01   1.00800           0
     12127 MEMB     104      CHL1     H11B     HGA2     0.900000E-01   1.00800           0
     12128 MEMB     104      CHL1     C9       CRL1    -0.900000E-01   12.0110           0
     12129 MEMB     104      CHL1     H9       HGA1     0.900000E-01   1.00800           0
     12130 MEMB     104      CHL1     C10      CRL1      0.00000       12.0110           0
     12131 MEMB     104      CHL1     C19      CTL3    -0.270000       12.0110           0
     12132 MEMB     104      CHL1     H19A     HAL3     0.900000E-01   1.00800           0
     12133 MEMB     104      CHL1     H19B     HAL3     0.900000E-01   1.00800           0
     12134 MEMB     104      CHL1     H19C     HAL3     0.900000E-01   1.00800           0
     12135 MEMB     104      CHL1     C1       CRL2    -0.180000       12.0110           0
     12136 MEMB     104      CHL1     H1A      HGA2     0.900000E-01   1.00800           0
     12137 MEMB     104      CHL1     H1B      HGA2     0.900000E-01   1.00800           0
     12138 MEMB     104      CHL1     C2       CRL2    -0.180000       12.0110           0
     12139 MEMB     104      CHL1     H2A      HGA2     0.900000E-01   1.00800           0
     12140 MEMB     104      CHL1     H2B      HGA2     0.900000E-01   1.00800           0
     12141 MEMB     104      CHL1     C20      CTL1    -0.900000E-01   12.0110           0
     12142 MEMB     104      CHL1     H20      HAL1     0.900000E-01   1.00800           0
     12143 MEMB     104      CHL1     C21      CTL3    -0.270000       12.0110           0
     12144 MEMB     104      CHL1     H21A     HAL3     0.900000E-01   1.00800           0
     12145 MEMB     104      CHL1     H21B     HAL3     0.900000E-01   1.00800           0
     12146 MEMB     104      CHL1     H21C     HAL3     0.900000E-01   1.00800           0
     12147 MEMB     104      CHL1     C22      CTL2    -0.180000       12.0110           0
     12148 MEMB     104      CHL1     H22A     HAL2     0.900000E-01   1.00800           0
     12149 MEMB     104      CHL1     H22B     HAL2     0.900000E-01   1.00800           0
     12150 MEMB     104      CHL1     C23      CTL2    -0.180000       12.0110           0
     12151 MEMB     104      CHL1     H23A     HAL2     0.900000E-01   1.00800           0
     12152 MEMB     104      CHL1     H23B     HAL2     0.900000E-01   1.00800           0
     12153 MEMB     104      CHL1     C24      CTL2    -0.180000       12.0110           0
     12154 MEMB     104      CHL1     H24A     HAL2     0.900000E-01   1.00800           0
     12155 MEMB     104      CHL1     H24B     HAL2     0.900000E-01   1.00800           0
     12156 MEMB     104      CHL1     C25      CTL1    -0.900000E-01   12.0110           0
     12157 MEMB     104      CHL1     H25      HAL1     0.900000E-01   1.00800           0
     12158 MEMB     104      CHL1     C26      CTL3    -0.270000       12.0110           0
     12159 MEMB     104      CHL1     H26A     HAL3     0.900000E-01   1.00800           0
     12160 MEMB     104      CHL1     H26B     HAL3     0.900000E-01   1.00800           0
     12161 MEMB     104      CHL1     H26C     HAL3     0.900000E-01   1.00800           0
     12162 MEMB     104      CHL1     C27      CTL3    -0.270000       12.0110           0
     12163 MEMB     104      CHL1     H27A     HAL3     0.900000E-01   1.00800           0
     12164 MEMB     104      CHL1     H27B     HAL3     0.900000E-01   1.00800           0
     12165 MEMB     104      CHL1     H27C     HAL3     0.900000E-01   1.00800           0
     12166 MEMB     105      CHL1     C3       CRL1     0.140000       12.0110           0
     12167 MEMB     105      CHL1     H3       HGA1     0.900000E-01   1.00800           0
     12168 MEMB     105      CHL1     O3       OHL     -0.660000       15.9994           0
     12169 MEMB     105      CHL1     H3'      HOL      0.430000       1.00800           0
     12170 MEMB     105      CHL1     C4       CRL2    -0.180000       12.0110           0
     12171 MEMB     105      CHL1     H4A      HGA2     0.900000E-01   1.00800           0
     12172 MEMB     105      CHL1     H4B      HGA2     0.900000E-01   1.00800           0
     12173 MEMB     105      CHL1     C5       CEL1      0.00000       12.0110           0
     12174 MEMB     105      CHL1     C6       CEL1    -0.150000       12.0110           0
     12175 MEMB     105      CHL1     H6       HEL1     0.150000       1.00800           0
     12176 MEMB     105      CHL1     C7       CRL2    -0.180000       12.0110           0
     12177 MEMB     105      CHL1     H7A      HGA2     0.900000E-01   1.00800           0
     12178 MEMB     105      CHL1     H7B      HGA2     0.900000E-01   1.00800           0
     12179 MEMB     105      CHL1     C8       CRL1    -0.900000E-01   12.0110           0
     12180 MEMB     105      CHL1     H8       HGA1     0.900000E-01   1.00800           0
     12181 MEMB     105      CHL1     C14      CRL1    -0.900000E-01   12.0110           0
     12182 MEMB     105      CHL1     H14      HGA1     0.900000E-01   1.00800           0
     12183 MEMB     105      CHL1     C15      CRL2    -0.180000       12.0110           0
     12184 MEMB     105      CHL1     H15A     HGA2     0.900000E-01   1.00800           0
     12185 MEMB     105      CHL1     H15B     HGA2     0.900000E-01   1.00800           0
     12186 MEMB     105      CHL1     C16      CRL2    -0.180000       12.0110           0
     12187 MEMB     105      CHL1     H16A     HGA2     0.900000E-01   1.00800           0
     12188 MEMB     105      CHL1     H16B     HGA2     0.900000E-01   1.00800           0
     12189 MEMB     105      CHL1     C17      CRL1    -0.900000E-01   12.0110           0
     12190 MEMB     105      CHL1     H17      HGA1     0.900000E-01   1.00800           0
     12191 MEMB     105      CHL1     C13      CRL1      0.00000       12.0110           0
     12192 MEMB     105      CHL1     C18      CTL3    -0.270000       12.0110           0
     12193 MEMB     105      CHL1     H18A     HAL3     0.900000E-01   1.00800           0
     12194 MEMB     105      CHL1     H18B     HAL3     0.900000E-01   1.00800           0
     12195 MEMB     105      CHL1     H18C     HAL3     0.900000E-01   1.00800           0
     12196 MEMB     105      CHL1     C12      CRL2    -0.180000       12.0110           0
     12197 MEMB     105      CHL1     H12A     HGA2     0.900000E-01   1.00800           0
     12198 MEMB     105      CHL1     H12B     HGA2     0.900000E-01   1.00800           0
     12199 MEMB     105      CHL1     C11      CRL2    -0.180000       12.0110           0
     12200 MEMB     105      CHL1     H11A     HGA2     0.900000E-01   1.00800           0
     12201 MEMB     105      CHL1     H11B     HGA2     0.900000E-01   1.00800           0
     12202 MEMB     105      CHL1     C9       CRL1    -0.900000E-01   12.0110           0
     12203 MEMB     105      CHL1     H9       HGA1     0.900000E-01   1.00800           0
     12204 MEMB     105      CHL1     C10      CRL1      0.00000       12.0110           0
     12205 MEMB     105      CHL1     C19      CTL3    -0.270000       12.0110           0
     12206 MEMB     105      CHL1     H19A     HAL3     0.900000E-01   1.00800           0
     12207 MEMB     105      CHL1     H19B     HAL3     0.900000E-01   1.00800           0
     12208 MEMB     105      CHL1     H19C     HAL3     0.900000E-01   1.00800           0
     12209 MEMB     105      CHL1     C1       CRL2    -0.180000       12.0110           0
     12210 MEMB     105      CHL1     H1A      HGA2     0.900000E-01   1.00800           0
     12211 MEMB     105      CHL1     H1B      HGA2     0.900000E-01   1.00800           0
     12212 MEMB     105      CHL1     C2       CRL2    -0.180000       12.0110           0
     12213 MEMB     105      CHL1     H2A      HGA2     0.900000E-01   1.00800           0
     12214 MEMB     105      CHL1     H2B      HGA2     0.900000E-01   1.00800           0
     12215 MEMB     105      CHL1     C20      CTL1    -0.900000E-01   12.0110           0
     12216 MEMB     105      CHL1     H20      HAL1     0.900000E-01   1.00800           0
     12217 MEMB     105      CHL1     C21      CTL3    -0.270000       12.0110           0
     12218 MEMB     105      CHL1     H21A     HAL3     0.900000E-01   1.00800           0
     12219 MEMB     105      CHL1     H21B     HAL3     0.900000E-01   1.00800           0
     12220 MEMB     105      CHL1     H21C     HAL3     0.900000E-01   1.00800           0
     12221 MEMB     105      CHL1     C22      CTL2    -0.180000       12.0110           0
     12222 MEMB     105      CHL1     H22A     HAL2     0.900000E-01   1.00800           0
     12223 MEMB     105      CHL1     H22B     HAL2     0.900000E-01   1.00800           0
     12224 MEMB     105      CHL1     C23      CTL2    -0.180000       12.0110           0
     12225 MEMB     105      CHL1     H23A     HAL2     0.900000E-01   1.00800           0
     12226 MEMB     105      CHL1     H23B     HAL2     0.900000E-01   1.00800           0
     12227 MEMB     105      CHL1     C24      CTL2    -0.180000       12.0110           0
     12228 MEMB     105      CHL1     H24A     HAL2     0.900000E-01   1.00800           0
     12229 MEMB     105      CHL1     H24B     HAL2     0.900000E-01   1.00800           0
     12230 MEMB     105      CHL1     C25      CTL1    -0.900000E-01   12.0110           0
     12231 MEMB     105      CHL1     H25      HAL1     0.900000E-01   1.00800           0
     12232 MEMB     105      CHL1     C26      CTL3    -0.270000       12.0110           0
     12233 MEMB     105      CHL1     H26A     HAL3     0.900000E-01   1.00800           0
     12234 MEMB     105      CHL1     H26B     HAL3     0.900000E-01   1.00800           0
     12235 MEMB     105      CHL1     H26C     HAL3     0.900000E-01   1.00800           0
     12236 MEMB     105      CHL1     C27      CTL3    -0.270000       12.0110           0
     12237 MEMB     105      CHL1     H27A     HAL3     0.900000E-01   1.00800           0
     12238 MEMB     105      CHL1     H27B     HAL3     0.900000E-01   1.00800           0
     12239 MEMB     105      CHL1     H27C     HAL3     0.900000E-01   1.00800           0
     12240 MEMB     106      SLPC     N        NTL     -0.600000       14.0070           0
     12241 MEMB     106      SLPC     C13      CTL5    -0.350000       12.0110           0
     12242 MEMB     106      SLPC     H13A     HL       0.250000       1.00800           0
     12243 MEMB     106      SLPC     H13B     HL       0.250000       1.00800           0
     12244 MEMB     106      SLPC     H13C     HL       0.250000       1.00800           0
     12245 MEMB     106      SLPC     C14      CTL5    -0.350000       12.0110           0
     12246 MEMB     106      SLPC     H14A     HL       0.250000       1.00800           0
     12247 MEMB     106      SLPC     H14B     HL       0.250000       1.00800           0
     12248 MEMB     106      SLPC     H14C     HL       0.250000       1.00800           0
     12249 MEMB     106      SLPC     C15      CTL5    -0.350000       12.0110           0
     12250 MEMB     106      SLPC     H15A     HL       0.250000       1.00800           0
     12251 MEMB     106      SLPC     H15B     HL       0.250000       1.00800           0
     12252 MEMB     106      SLPC     H15C     HL       0.250000       1.00800           0
     12253 MEMB     106      SLPC     C12      CTL2    -0.100000       12.0110           0
     12254 MEMB     106      SLPC     H12A     HL       0.250000       1.00800           0
     12255 MEMB     106      SLPC     H12B     HL       0.250000       1.00800           0
     12256 MEMB     106      SLPC     C11      CTL2    -0.800000E-01   12.0110           0
     12257 MEMB     106      SLPC     H11A     HAL2     0.900000E-01   1.00800           0
     12258 MEMB     106      SLPC     H11B     HAL2     0.900000E-01   1.00800           0
     12259 MEMB     106      SLPC     P        PL        1.50000       30.9740           0
     12260 MEMB     106      SLPC     O13      O2L     -0.780000       15.9994           0
     12261 MEMB     106      SLPC     O14      O2L     -0.780000       15.9994           0
     12262 MEMB     106      SLPC     O12      OSLP    -0.570000       15.9994           0
     12263 MEMB     106      SLPC     O11      OSLP    -0.570000       15.9994           0
     12264 MEMB     106      SLPC     C1       CTL2    -0.800000E-01   12.0110           0
     12265 MEMB     106      SLPC     HA       HAL2     0.900000E-01   1.00800           0
     12266 MEMB     106      SLPC     HB       HAL2     0.900000E-01   1.00800           0
     12267 MEMB     106      SLPC     C2       CTL1     0.170000       12.0110           0
     12268 MEMB     106      SLPC     HS       HAL1     0.900000E-01   1.00800           0
     12269 MEMB     106      SLPC     O21      OSL     -0.490000       15.9994           0
     12270 MEMB     106      SLPC     C21      CL       0.900000       12.0110           0
     12271 MEMB     106      SLPC     O22      OBL     -0.630000       15.9994           0
     12272 MEMB     106      SLPC     C22      CTL2    -0.220000       12.0110           0
     12273 MEMB     106      SLPC     H2R      HAL2     0.900000E-01   1.00800           0
     12274 MEMB     106      SLPC     H2S      HAL2     0.900000E-01   1.00800           0
     12275 MEMB     106      SLPC     C3       CTL2     0.800000E-01   12.0110           0
     12276 MEMB     106      SLPC     HX       HAL2     0.900000E-01   1.00800           0
     12277 MEMB     106      SLPC     HY       HAL2     0.900000E-01   1.00800           0
     12278 MEMB     106      SLPC     O31      OSL     -0.490000       15.9994           0
     12279 MEMB     106      SLPC     C31      CL       0.900000       12.0110           0
     12280 MEMB     106      SLPC     O32      OBL     -0.630000       15.9994           0
     12281 MEMB     106      SLPC     C32      CTL2    -0.220000       12.0110           0
     12282 MEMB     106      SLPC     H2X      HAL2     0.900000E-01   1.00800           0
     12283 MEMB     106      SLPC     H2Y      HAL2     0.900000E-01   1.00800           0
     12284 MEMB     106      SLPC     C23      CTL2    -0.180000       12.0110           0
     12285 MEMB     106      SLPC     H3R      HAL2     0.900000E-01   1.00800           0
     12286 MEMB     106      SLPC     H3S      HAL2     0.900000E-01   1.00800           0
     12287 MEMB     106      SLPC     C24      CTL2    -0.180000       12.0110           0
     12288 MEMB     106      SLPC     H4R      HAL2     0.900000E-01   1.00800           0
     12289 MEMB     106      SLPC     H4S      HAL2     0.900000E-01   1.00800           0
     12290 MEMB     106      SLPC     C25      CTL2    -0.180000       12.0110           0
     12291 MEMB     106      SLPC     H5R      HAL2     0.900000E-01   1.00800           0
     12292 MEMB     106      SLPC     H5S      HAL2     0.900000E-01   1.00800           0
     12293 MEMB     106      SLPC     C26      CTL2    -0.180000       12.0110           0
     12294 MEMB     106      SLPC     H6R      HAL2     0.900000E-01   1.00800           0
     12295 MEMB     106      SLPC     H6S      HAL2     0.900000E-01   1.00800           0
     12296 MEMB     106      SLPC     C27      CTL2    -0.180000       12.0110           0
     12297 MEMB     106      SLPC     H7R      HAL2     0.900000E-01   1.00800           0
     12298 MEMB     106      SLPC     H7S      HAL2     0.900000E-01   1.00800           0
     12299 MEMB     106      SLPC     C28      CTL2    -0.180000       12.0110           0
     12300 MEMB     106      SLPC     H8R      HAL2     0.900000E-01   1.00800           0
     12301 MEMB     106      SLPC     H8S      HAL2     0.900000E-01   1.00800           0
     12302 MEMB     106      SLPC     C29      CEL1    -0.150000       12.0110           0
     12303 MEMB     106      SLPC     H9R      HEL1     0.150000       1.00800           0
     12304 MEMB     106      SLPC     C210     CEL1    -0.150000       12.0110           0
     12305 MEMB     106      SLPC     H10R     HEL1     0.150000       1.00800           0
     12306 MEMB     106      SLPC     C211     CTL2    -0.180000       12.0110           0
     12307 MEMB     106      SLPC     H11R     HAL2     0.900000E-01   1.00800           0
     12308 MEMB     106      SLPC     H11S     HAL2     0.900000E-01   1.00800           0
     12309 MEMB     106      SLPC     C212     CEL1    -0.150000       12.0110           0
     12310 MEMB     106      SLPC     H12R     HEL1     0.150000       1.00800           0
     12311 MEMB     106      SLPC     C213     CEL1    -0.150000       12.0110           0
     12312 MEMB     106      SLPC     H13R     HEL1     0.150000       1.00800           0
     12313 MEMB     106      SLPC     C214     CTL2    -0.180000       12.0110           0
     12314 MEMB     106      SLPC     H14R     HAL2     0.900000E-01   1.00800           0
     12315 MEMB     106      SLPC     H14S     HAL2     0.900000E-01   1.00800           0
     12316 MEMB     106      SLPC     C215     CTL2    -0.180000       12.0110           0
     12317 MEMB     106      SLPC     H15R     HAL2     0.900000E-01   1.00800           0
     12318 MEMB     106      SLPC     H15S     HAL2     0.900000E-01   1.00800           0
     12319 MEMB     106      SLPC     C216     CTL2    -0.180000       12.0110           0
     12320 MEMB     106      SLPC     H16R     HAL2     0.900000E-01   1.00800           0
     12321 MEMB     106      SLPC     H16S     HAL2     0.900000E-01   1.00800           0
     12322 MEMB     106      SLPC     C217     CTL2    -0.180000       12.0110           0
     12323 MEMB     106      SLPC     H17R     HAL2     0.900000E-01   1.00800           0
     12324 MEMB     106      SLPC     H17S     HAL2     0.900000E-01   1.00800           0
     12325 MEMB     106      SLPC     C218     CTL3    -0.270000       12.0110           0
     12326 MEMB     106      SLPC     H18R     HAL3     0.900000E-01   1.00800           0
     12327 MEMB     106      SLPC     H18S     HAL3     0.900000E-01   1.00800           0
     12328 MEMB     106      SLPC     H18T     HAL3     0.900000E-01   1.00800           0
     12329 MEMB     106      SLPC     C33      CTL2    -0.180000       12.0110           0
     12330 MEMB     106      SLPC     H3X      HAL2     0.900000E-01   1.00800           0
     12331 MEMB     106      SLPC     H3Y      HAL2     0.900000E-01   1.00800           0
     12332 MEMB     106      SLPC     C34      CTL2    -0.180000       12.0110           0
     12333 MEMB     106      SLPC     H4X      HAL2     0.900000E-01   1.00800           0
     12334 MEMB     106      SLPC     H4Y      HAL2     0.900000E-01   1.00800           0
     12335 MEMB     106      SLPC     C35      CTL2    -0.180000       12.0110           0
     12336 MEMB     106      SLPC     H5X      HAL2     0.900000E-01   1.00800           0
     12337 MEMB     106      SLPC     H5Y      HAL2     0.900000E-01   1.00800           0
     12338 MEMB     106      SLPC     C36      CTL2    -0.180000       12.0110           0
     12339 MEMB     106      SLPC     H6X      HAL2     0.900000E-01   1.00800           0
     12340 MEMB     106      SLPC     H6Y      HAL2     0.900000E-01   1.00800           0
     12341 MEMB     106      SLPC     C37      CTL2    -0.180000       12.0110           0
     12342 MEMB     106      SLPC     H7X      HAL2     0.900000E-01   1.00800           0
     12343 MEMB     106      SLPC     H7Y      HAL2     0.900000E-01   1.00800           0
     12344 MEMB     106      SLPC     C38      CTL2    -0.180000       12.0110           0
     12345 MEMB     106      SLPC     H8X      HAL2     0.900000E-01   1.00800           0
     12346 MEMB     106      SLPC     H8Y      HAL2     0.900000E-01   1.00800           0
     12347 MEMB     106      SLPC     C39      CTL2    -0.180000       12.0110           0
     12348 MEMB     106      SLPC     H9X      HAL2     0.900000E-01   1.00800           0
     12349 MEMB     106      SLPC     H9Y      HAL2     0.900000E-01   1.00800           0
     12350 MEMB     106      SLPC     C310     CTL2    -0.180000       12.0110           0
     12351 MEMB     106      SLPC     H10X     HAL2     0.900000E-01   1.00800           0
     12352 MEMB     106      SLPC     H10Y     HAL2     0.900000E-01   1.00800           0
     12353 MEMB     106      SLPC     C311     CTL2    -0.180000       12.0110           0
     12354 MEMB     106      SLPC     H11X     HAL2     0.900000E-01   1.00800           0
     12355 MEMB     106      SLPC     H11Y     HAL2     0.900000E-01   1.00800           0
     12356 MEMB     106      SLPC     C312     CTL2    -0.180000       12.0110           0
     12357 MEMB     106      SLPC     H12X     HAL2     0.900000E-01   1.00800           0
     12358 MEMB     106      SLPC     H12Y     HAL2     0.900000E-01   1.00800           0
     12359 MEMB     106      SLPC     C313     CTL2    -0.180000       12.0110           0
     12360 MEMB     106      SLPC     H13X     HAL2     0.900000E-01   1.00800           0
     12361 MEMB     106      SLPC     H13Y     HAL2     0.900000E-01   1.00800           0
     12362 MEMB     106      SLPC     C314     CTL2    -0.180000       12.0110           0
     12363 MEMB     106      SLPC     H14X     HAL2     0.900000E-01   1.00800           0
     12364 MEMB     106      SLPC     H14Y     HAL2     0.900000E-01   1.00800           0
     12365 MEMB     106      SLPC     C315     CTL2    -0.180000       12.0110           0
     12366 MEMB     106      SLPC     H15X     HAL2     0.900000E-01   1.00800           0
     12367 MEMB     106      SLPC     H15Y     HAL2     0.900000E-01   1.00800           0
     12368 MEMB     106      SLPC     C316     CTL2    -0.180000       12.0110           0
     12369 MEMB     106      SLPC     H16X     HAL2     0.900000E-01   1.00800           0
     12370 MEMB     106      SLPC     H16Y     HAL2     0.900000E-01   1.00800           0
     12371 MEMB     106      SLPC     C317     CTL2    -0.180000       12.0110           0
     12372 MEMB     106      SLPC     H17X     HAL2     0.900000E-01   1.00800           0
     12373 MEMB     106      SLPC     H17Y     HAL2     0.900000E-01   1.00800           0
     12374 MEMB     106      SLPC     C318     CTL3    -0.270000       12.0110           0
     12375 MEMB     106      SLPC     H18X     HAL3     0.900000E-01   1.00800           0
     12376 MEMB     106      SLPC     H18Y     HAL3     0.900000E-01   1.00800           0
     12377 MEMB     106      SLPC     H18Z     HAL3     0.900000E-01   1.00800           0
     12378 MEMB     107      CHL1     C3       CRL1     0.140000       12.0110           0
     12379 MEMB     107      CHL1     H3       HGA1     0.900000E-01   1.00800           0
     12380 MEMB     107      CHL1     O3       OHL     -0.660000       15.9994           0
     12381 MEMB     107      CHL1     H3'      HOL      0.430000       1.00800           0
     12382 MEMB     107      CHL1     C4       CRL2    -0.180000       12.0110           0
     12383 MEMB     107      CHL1     H4A      HGA2     0.900000E-01   1.00800           0
     12384 MEMB     107      CHL1     H4B      HGA2     0.900000E-01   1.00800           0
     12385 MEMB     107      CHL1     C5       CEL1      0.00000       12.0110           0
     12386 MEMB     107      CHL1     C6       CEL1    -0.150000       12.0110           0
     12387 MEMB     107      CHL1     H6       HEL1     0.150000       1.00800           0
     12388 MEMB     107      CHL1     C7       CRL2    -0.180000       12.0110           0
     12389 MEMB     107      CHL1     H7A      HGA2     0.900000E-01   1.00800           0
     12390 MEMB     107      CHL1     H7B      HGA2     0.900000E-01   1.00800           0
     12391 MEMB     107      CHL1     C8       CRL1    -0.900000E-01   12.0110           0
     12392 MEMB     107      CHL1     H8       HGA1     0.900000E-01   1.00800           0
     12393 MEMB     107      CHL1     C14      CRL1    -0.900000E-01   12.0110           0
     12394 MEMB     107      CHL1     H14      HGA1     0.900000E-01   1.00800           0
     12395 MEMB     107      CHL1     C15      CRL2    -0.180000       12.0110           0
     12396 MEMB     107      CHL1     H15A     HGA2     0.900000E-01   1.00800           0
     12397 MEMB     107      CHL1     H15B     HGA2     0.900000E-01   1.00800           0
     12398 MEMB     107      CHL1     C16      CRL2    -0.180000       12.0110           0
     12399 MEMB     107      CHL1     H16A     HGA2     0.900000E-01   1.00800           0
     12400 MEMB     107      CHL1     H16B     HGA2     0.900000E-01   1.00800           0
     12401 MEMB     107      CHL1     C17      CRL1    -0.900000E-01   12.0110           0
     12402 MEMB     107      CHL1     H17      HGA1     0.900000E-01   1.00800           0
     12403 MEMB     107      CHL1     C13      CRL1      0.00000       12.0110           0
     12404 MEMB     107      CHL1     C18      CTL3    -0.270000       12.0110           0
     12405 MEMB     107      CHL1     H18A     HAL3     0.900000E-01   1.00800           0
     12406 MEMB     107      CHL1     H18B     HAL3     0.900000E-01   1.00800           0
     12407 MEMB     107      CHL1     H18C     HAL3     0.900000E-01   1.00800           0
     12408 MEMB     107      CHL1     C12      CRL2    -0.180000       12.0110           0
     12409 MEMB     107      CHL1     H12A     HGA2     0.900000E-01   1.00800           0
     12410 MEMB     107      CHL1     H12B     HGA2     0.900000E-01   1.00800           0
     12411 MEMB     107      CHL1     C11      CRL2    -0.180000       12.0110           0
     12412 MEMB     107      CHL1     H11A     HGA2     0.900000E-01   1.00800           0
     12413 MEMB     107      CHL1     H11B     HGA2     0.900000E-01   1.00800           0
     12414 MEMB     107      CHL1     C9       CRL1    -0.900000E-01   12.0110           0
     12415 MEMB     107      CHL1     H9       HGA1     0.900000E-01   1.00800           0
     12416 MEMB     107      CHL1     C10      CRL1      0.00000       12.0110           0
     12417 MEMB     107      CHL1     C19      CTL3    -0.270000       12.0110           0
     12418 MEMB     107      CHL1     H19A     HAL3     0.900000E-01   1.00800           0
     12419 MEMB     107      CHL1     H19B     HAL3     0.900000E-01   1.00800           0
     12420 MEMB     107      CHL1     H19C     HAL3     0.900000E-01   1.00800           0
     12421 MEMB     107      CHL1     C1       CRL2    -0.180000       12.0110           0
     12422 MEMB     107      CHL1     H1A      HGA2     0.900000E-01   1.00800           0
     12423 MEMB     107      CHL1     H1B      HGA2     0.900000E-01   1.00800           0
     12424 MEMB     107      CHL1     C2       CRL2    -0.180000       12.0110           0
     12425 MEMB     107      CHL1     H2A      HGA2     0.900000E-01   1.00800           0
     12426 MEMB     107      CHL1     H2B      HGA2     0.900000E-01   1.00800           0
     12427 MEMB     107      CHL1     C20      CTL1    -0.900000E-01   12.0110           0
     12428 MEMB     107      CHL1     H20      HAL1     0.900000E-01   1.00800           0
     12429 MEMB     107      CHL1     C21      CTL3    -0.270000       12.0110           0
     12430 MEMB     107      CHL1     H21A     HAL3     0.900000E-01   1.00800           0
     12431 MEMB     107      CHL1     H21B     HAL3     0.900000E-01   1.00800           0
     12432 MEMB     107      CHL1     H21C     HAL3     0.900000E-01   1.00800           0
     12433 MEMB     107      CHL1     C22      CTL2    -0.180000       12.0110           0
     12434 MEMB     107      CHL1     H22A     HAL2     0.900000E-01   1.00800           0
     12435 MEMB     107      CHL1     H22B     HAL2     0.900000E-01   1.00800           0
     12436 MEMB     107      CHL1     C23      CTL2    -0.180000       12.0110           0
     12437 MEMB     107      CHL1     H23A     HAL2     0.900000E-01   1.00800           0
     12438 MEMB     107      CHL1     H23B     HAL2     0.900000E-01   1.00800           0
     12439 MEMB     107      CHL1     C24      CTL2    -0.180000       12.0110           0
     12440 MEMB     107      CHL1     H24A     HAL2     0.900000E-01   1.00800           0
     12441 MEMB     107      CHL1     H24B     HAL2     0.900000E-01   1.00800           0
     12442 MEMB     107      CHL1     C25      CTL1    -0.900000E-01   12.0110           0
     12443 MEMB     107      CHL1     H25      HAL1     0.900000E-01   1.00800           0
     12444 MEMB     107      CHL1     C26      CTL3    -0.270000       12.0110           0
     12445 MEMB     107      CHL1     H26A     HAL3     0.900000E-01   1.00800           0
     12446 MEMB     107      CHL1     H26B     HAL3     0.900000E-01   1.00800           0
     12447 MEMB     107      CHL1     H26C     HAL3     0.900000E-01   1.00800           0
     12448 MEMB     107      CHL1     C27      CTL3    -0.270000       12.0110           0
     12449 MEMB     107      CHL1     H27A     HAL3     0.900000E-01   1.00800           0
     12450 MEMB     107      CHL1     H27B     HAL3     0.900000E-01   1.00800           0
     12451 MEMB     107      CHL1     H27C     HAL3     0.900000E-01   1.00800           0
     12452 MEMB     108      SAPE     N        NH3L    -0.300000       14.0070           0
     12453 MEMB     108      SAPE     HN1      HCL      0.330000       1.00800           0
     12454 MEMB     108      SAPE     HN2      HCL      0.330000       1.00800           0
     12455 MEMB     108      SAPE     HN3      HCL      0.330000       1.00800           0
     12456 MEMB     108      SAPE     C12      CTL2     0.130000       12.0110           0
     12457 MEMB     108      SAPE     H12A     HAL2     0.900000E-01   1.00800           0
     12458 MEMB     108      SAPE     H12B     HAL2     0.900000E-01   1.00800           0
     12459 MEMB     108      SAPE     C11      CTL2    -0.800000E-01   12.0110           0
     12460 MEMB     108      SAPE     H11A     HAL2     0.900000E-01   1.00800           0
     12461 MEMB     108      SAPE     H11B     HAL2     0.900000E-01   1.00800           0
     12462 MEMB     108      SAPE     P        PL        1.50000       30.9740           0
     12463 MEMB     108      SAPE     O13      O2L     -0.780000       15.9994           0
     12464 MEMB     108      SAPE     O14      O2L     -0.780000       15.9994           0
     12465 MEMB     108      SAPE     O12      OSLP    -0.570000       15.9994           0
     12466 MEMB     108      SAPE     O11      OSLP    -0.570000       15.9994           0
     12467 MEMB     108      SAPE     C1       CTL2    -0.800000E-01   12.0110           0
     12468 MEMB     108      SAPE     HA       HAL2     0.900000E-01   1.00800           0
     12469 MEMB     108      SAPE     HB       HAL2     0.900000E-01   1.00800           0
     12470 MEMB     108      SAPE     C2       CTL1     0.170000       12.0110           0
     12471 MEMB     108      SAPE     HS       HAL1     0.900000E-01   1.00800           0
     12472 MEMB     108      SAPE     O21      OSL     -0.490000       15.9994           0
     12473 MEMB     108      SAPE     C21      CL       0.900000       12.0110           0
     12474 MEMB     108      SAPE     O22      OBL     -0.630000       15.9994           0
     12475 MEMB     108      SAPE     C22      CTL2    -0.220000       12.0110           0
     12476 MEMB     108      SAPE     H2R      HAL2     0.900000E-01   1.00800           0
     12477 MEMB     108      SAPE     H2S      HAL2     0.900000E-01   1.00800           0
     12478 MEMB     108      SAPE     C3       CTL2     0.800000E-01   12.0110           0
     12479 MEMB     108      SAPE     HX       HAL2     0.900000E-01   1.00800           0
     12480 MEMB     108      SAPE     HY       HAL2     0.900000E-01   1.00800           0
     12481 MEMB     108      SAPE     O31      OSL     -0.490000       15.9994           0
     12482 MEMB     108      SAPE     C31      CL       0.900000       12.0110           0
     12483 MEMB     108      SAPE     O32      OBL     -0.630000       15.9994           0
     12484 MEMB     108      SAPE     C32      CTL2    -0.220000       12.0110           0
     12485 MEMB     108      SAPE     H2X      HAL2     0.900000E-01   1.00800           0
     12486 MEMB     108      SAPE     H2Y      HAL2     0.900000E-01   1.00800           0
     12487 MEMB     108      SAPE     C23      CTL2    -0.180000       12.0110           0
     12488 MEMB     108      SAPE     H3R      HAL2     0.900000E-01   1.00800           0
     12489 MEMB     108      SAPE     H3S      HAL2     0.900000E-01   1.00800           0
     12490 MEMB     108      SAPE     C24      CTL2    -0.180000       12.0110           0
     12491 MEMB     108      SAPE     H4R      HAL2     0.900000E-01   1.00800           0
     12492 MEMB     108      SAPE     H4S      HAL2     0.900000E-01   1.00800           0
     12493 MEMB     108      SAPE     C25      CEL1    -0.150000       12.0110           0
     12494 MEMB     108      SAPE     H5R      HEL1     0.150000       1.00800           0
     12495 MEMB     108      SAPE     C26      CEL1    -0.150000       12.0110           0
     12496 MEMB     108      SAPE     H6R      HEL1     0.150000       1.00800           0
     12497 MEMB     108      SAPE     C27      CTL2    -0.180000       12.0110           0
     12498 MEMB     108      SAPE     H7R      HAL2     0.900000E-01   1.00800           0
     12499 MEMB     108      SAPE     H7S      HAL2     0.900000E-01   1.00800           0
     12500 MEMB     108      SAPE     C28      CEL1    -0.150000       12.0110           0
     12501 MEMB     108      SAPE     H8R      HEL1     0.150000       1.00800           0
     12502 MEMB     108      SAPE     C29      CEL1    -0.150000       12.0110           0
     12503 MEMB     108      SAPE     H9R      HEL1     0.150000       1.00800           0
     12504 MEMB     108      SAPE     C210     CTL2    -0.180000       12.0110           0
     12505 MEMB     108      SAPE     H10R     HAL2     0.900000E-01   1.00800           0
     12506 MEMB     108      SAPE     H10S     HAL2     0.900000E-01   1.00800           0
     12507 MEMB     108      SAPE     C211     CEL1    -0.150000       12.0110           0
     12508 MEMB     108      SAPE     H11R     HEL1     0.150000       1.00800           0
     12509 MEMB     108      SAPE     C212     CEL1    -0.150000       12.0110           0
     12510 MEMB     108      SAPE     H12R     HEL1     0.150000       1.00800           0
     12511 MEMB     108      SAPE     C213     CTL2    -0.180000       12.0110           0
     12512 MEMB     108      SAPE     H13R     HAL2     0.900000E-01   1.00800           0
     12513 MEMB     108      SAPE     H13S     HAL2     0.900000E-01   1.00800           0
     12514 MEMB     108      SAPE     C214     CEL1    -0.150000       12.0110           0
     12515 MEMB     108      SAPE     H14R     HEL1     0.150000       1.00800           0
     12516 MEMB     108      SAPE     C215     CEL1    -0.150000       12.0110           0
     12517 MEMB     108      SAPE     H15R     HEL1     0.150000       1.00800           0
     12518 MEMB     108      SAPE     C216     CTL2    -0.180000       12.0110           0
     12519 MEMB     108      SAPE     H16R     HAL2     0.900000E-01   1.00800           0
     12520 MEMB     108      SAPE     H16S     HAL2     0.900000E-01   1.00800           0
     12521 MEMB     108      SAPE     C217     CTL2    -0.180000       12.0110           0
     12522 MEMB     108      SAPE     H17R     HAL2     0.900000E-01   1.00800           0
     12523 MEMB     108      SAPE     H17S     HAL2     0.900000E-01   1.00800           0
     12524 MEMB     108      SAPE     C218     CTL2    -0.180000       12.0110           0
     12525 MEMB     108      SAPE     H18R     HAL2     0.900000E-01   1.00800           0
     12526 MEMB     108      SAPE     H18S     HAL2     0.900000E-01   1.00800           0
     12527 MEMB     108      SAPE     C219     CTL2    -0.180000       12.0110           0
     12528 MEMB     108      SAPE     H19R     HAL2     0.900000E-01   1.00800           0
     12529 MEMB     108      SAPE     H19S     HAL2     0.900000E-01   1.00800           0
     12530 MEMB     108      SAPE     C220     CTL3    -0.270000       12.0110           0
     12531 MEMB     108      SAPE     H20R     HAL3     0.900000E-01   1.00800           0
     12532 MEMB     108      SAPE     H20S     HAL3     0.900000E-01   1.00800           0
     12533 MEMB     108      SAPE     H20T     HAL3     0.900000E-01   1.00800           0
     12534 MEMB     108      SAPE     C33      CTL2    -0.180000       12.0110           0
     12535 MEMB     108      SAPE     H3X      HAL2     0.900000E-01   1.00800           0
     12536 MEMB     108      SAPE     H3Y      HAL2     0.900000E-01   1.00800           0
     12537 MEMB     108      SAPE     C34      CTL2    -0.180000       12.0110           0
     12538 MEMB     108      SAPE     H4X      HAL2     0.900000E-01   1.00800           0
     12539 MEMB     108      SAPE     H4Y      HAL2     0.900000E-01   1.00800           0
     12540 MEMB     108      SAPE     C35      CTL2    -0.180000       12.0110           0
     12541 MEMB     108      SAPE     H5X      HAL2     0.900000E-01   1.00800           0
     12542 MEMB     108      SAPE     H5Y      HAL2     0.900000E-01   1.00800           0
     12543 MEMB     108      SAPE     C36      CTL2    -0.180000       12.0110           0
     12544 MEMB     108      SAPE     H6X      HAL2     0.900000E-01   1.00800           0
     12545 MEMB     108      SAPE     H6Y      HAL2     0.900000E-01   1.00800           0
     12546 MEMB     108      SAPE     C37      CTL2    -0.180000       12.0110           0
     12547 MEMB     108      SAPE     H7X      HAL2     0.900000E-01   1.00800           0
     12548 MEMB     108      SAPE     H7Y      HAL2     0.900000E-01   1.00800           0
     12549 MEMB     108      SAPE     C38      CTL2    -0.180000       12.0110           0
     12550 MEMB     108      SAPE     H8X      HAL2     0.900000E-01   1.00800           0
     12551 MEMB     108      SAPE     H8Y      HAL2     0.900000E-01   1.00800           0
     12552 MEMB     108      SAPE     C39      CTL2    -0.180000       12.0110           0
     12553 MEMB     108      SAPE     H9X      HAL2     0.900000E-01   1.00800           0
     12554 MEMB     108      SAPE     H9Y      HAL2     0.900000E-01   1.00800           0
     12555 MEMB     108      SAPE     C310     CTL2    -0.180000       12.0110           0
     12556 MEMB     108      SAPE     H10X     HAL2     0.900000E-01   1.00800           0
     12557 MEMB     108      SAPE     H10Y     HAL2     0.900000E-01   1.00800           0
     12558 MEMB     108      SAPE     C311     CTL2    -0.180000       12.0110           0
     12559 MEMB     108      SAPE     H11X     HAL2     0.900000E-01   1.00800           0
     12560 MEMB     108      SAPE     H11Y     HAL2     0.900000E-01   1.00800           0
     12561 MEMB     108      SAPE     C312     CTL2    -0.180000       12.0110           0
     12562 MEMB     108      SAPE     H12X     HAL2     0.900000E-01   1.00800           0
     12563 MEMB     108      SAPE     H12Y     HAL2     0.900000E-01   1.00800           0
     12564 MEMB     108      SAPE     C313     CTL2    -0.180000       12.0110           0
     12565 MEMB     108      SAPE     H13X     HAL2     0.900000E-01   1.00800           0
     12566 MEMB     108      SAPE     H13Y     HAL2     0.900000E-01   1.00800           0
     12567 MEMB     108      SAPE     C314     CTL2    -0.180000       12.0110           0
     12568 MEMB     108      SAPE     H14X     HAL2     0.900000E-01   1.00800           0
     12569 MEMB     108      SAPE     H14Y     HAL2     0.900000E-01   1.00800           0
     12570 MEMB     108      SAPE     C315     CTL2    -0.180000       12.0110           0
     12571 MEMB     108      SAPE     H15X     HAL2     0.900000E-01   1.00800           0
     12572 MEMB     108      SAPE     H15Y     HAL2     0.900000E-01   1.00800           0
     12573 MEMB     108      SAPE     C316     CTL2    -0.180000       12.0110           0
     12574 MEMB     108      SAPE     H16X     HAL2     0.900000E-01   1.00800           0
     12575 MEMB     108      SAPE     H16Y     HAL2     0.900000E-01   1.00800           0
     12576 MEMB     108      SAPE     C317     CTL2    -0.180000       12.0110           0
     12577 MEMB     108      SAPE     H17X     HAL2     0.900000E-01   1.00800           0
     12578 MEMB     108      SAPE     H17Y     HAL2     0.900000E-01   1.00800           0
     12579 MEMB     108      SAPE     C318     CTL3    -0.270000       12.0110           0
     12580 MEMB     108      SAPE     H18X     HAL3     0.900000E-01   1.00800           0
     12581 MEMB     108      SAPE     H18Y     HAL3     0.900000E-01   1.00800           0
     12582 MEMB     108      SAPE     H18Z     HAL3     0.900000E-01   1.00800           0
     12583 MEMB     109      SOPE     N        NH3L    -0.300000       14.0070           0
     12584 MEMB     109      SOPE     HN1      HCL      0.330000       1.00800           0
     12585 MEMB     109      SOPE     HN2      HCL      0.330000       1.00800           0
     12586 MEMB     109      SOPE     HN3      HCL      0.330000       1.00800           0
     12587 MEMB     109      SOPE     C12      CTL2     0.130000       12.0110           0
     12588 MEMB     109      SOPE     H12A     HAL2     0.900000E-01   1.00800           0
     12589 MEMB     109      SOPE     H12B     HAL2     0.900000E-01   1.00800           0
     12590 MEMB     109      SOPE     C11      CTL2    -0.800000E-01   12.0110           0
     12591 MEMB     109      SOPE     H11A     HAL2     0.900000E-01   1.00800           0
     12592 MEMB     109      SOPE     H11B     HAL2     0.900000E-01   1.00800           0
     12593 MEMB     109      SOPE     P        PL        1.50000       30.9740           0
     12594 MEMB     109      SOPE     O13      O2L     -0.780000       15.9994           0
     12595 MEMB     109      SOPE     O14      O2L     -0.780000       15.9994           0
     12596 MEMB     109      SOPE     O12      OSLP    -0.570000       15.9994           0
     12597 MEMB     109      SOPE     O11      OSLP    -0.570000       15.9994           0
     12598 MEMB     109      SOPE     C1       CTL2    -0.800000E-01   12.0110           0
     12599 MEMB     109      SOPE     HA       HAL2     0.900000E-01   1.00800           0
     12600 MEMB     109      SOPE     HB       HAL2     0.900000E-01   1.00800           0
     12601 MEMB     109      SOPE     C2       CTL1     0.170000       12.0110           0
     12602 MEMB     109      SOPE     HS       HAL1     0.900000E-01   1.00800           0
     12603 MEMB     109      SOPE     O21      OSL     -0.490000       15.9994           0
     12604 MEMB     109      SOPE     C21      CL       0.900000       12.0110           0
     12605 MEMB     109      SOPE     O22      OBL     -0.630000       15.9994           0
     12606 MEMB     109      SOPE     C22      CTL2    -0.220000       12.0110           0
     12607 MEMB     109      SOPE     H2R      HAL2     0.900000E-01   1.00800           0
     12608 MEMB     109      SOPE     H2S      HAL2     0.900000E-01   1.00800           0
     12609 MEMB     109      SOPE     C3       CTL2     0.800000E-01   12.0110           0
     12610 MEMB     109      SOPE     HX       HAL2     0.900000E-01   1.00800           0
     12611 MEMB     109      SOPE     HY       HAL2     0.900000E-01   1.00800           0
     12612 MEMB     109      SOPE     O31      OSL     -0.490000       15.9994           0
     12613 MEMB     109      SOPE     C31      CL       0.900000       12.0110           0
     12614 MEMB     109      SOPE     O32      OBL     -0.630000       15.9994           0
     12615 MEMB     109      SOPE     C32      CTL2    -0.220000       12.0110           0
     12616 MEMB     109      SOPE     H2X      HAL2     0.900000E-01   1.00800           0
     12617 MEMB     109      SOPE     H2Y      HAL2     0.900000E-01   1.00800           0
     12618 MEMB     109      SOPE     C23      CTL2    -0.180000       12.0110           0
     12619 MEMB     109      SOPE     H3R      HAL2     0.900000E-01   1.00800           0
     12620 MEMB     109      SOPE     H3S      HAL2     0.900000E-01   1.00800           0
     12621 MEMB     109      SOPE     C24      CTL2    -0.180000       12.0110           0
     12622 MEMB     109      SOPE     H4R      HAL2     0.900000E-01   1.00800           0
     12623 MEMB     109      SOPE     H4S      HAL2     0.900000E-01   1.00800           0
     12624 MEMB     109      SOPE     C25      CTL2    -0.180000       12.0110           0
     12625 MEMB     109      SOPE     H5R      HAL2     0.900000E-01   1.00800           0
     12626 MEMB     109      SOPE     H5S      HAL2     0.900000E-01   1.00800           0
     12627 MEMB     109      SOPE     C26      CTL2    -0.180000       12.0110           0
     12628 MEMB     109      SOPE     H6R      HAL2     0.900000E-01   1.00800           0
     12629 MEMB     109      SOPE     H6S      HAL2     0.900000E-01   1.00800           0
     12630 MEMB     109      SOPE     C27      CTL2    -0.180000       12.0110           0
     12631 MEMB     109      SOPE     H7R      HAL2     0.900000E-01   1.00800           0
     12632 MEMB     109      SOPE     H7S      HAL2     0.900000E-01   1.00800           0
     12633 MEMB     109      SOPE     C28      CTL2    -0.180000       12.0110           0
     12634 MEMB     109      SOPE     H8R      HAL2     0.900000E-01   1.00800           0
     12635 MEMB     109      SOPE     H8S      HAL2     0.900000E-01   1.00800           0
     12636 MEMB     109      SOPE     C29      CEL1    -0.150000       12.0110           0
     12637 MEMB     109      SOPE     H91      HEL1     0.150000       1.00800           0
     12638 MEMB     109      SOPE     C210     CEL1    -0.150000       12.0110           0
     12639 MEMB     109      SOPE     H101     HEL1     0.150000       1.00800           0
     12640 MEMB     109      SOPE     C211     CTL2    -0.180000       12.0110           0
     12641 MEMB     109      SOPE     H11R     HAL2     0.900000E-01   1.00800           0
     12642 MEMB     109      SOPE     H11S     HAL2     0.900000E-01   1.00800           0
     12643 MEMB     109      SOPE     C212     CTL2    -0.180000       12.0110           0
     12644 MEMB     109      SOPE     H12R     HAL2     0.900000E-01   1.00800           0
     12645 MEMB     109      SOPE     H12S     HAL2     0.900000E-01   1.00800           0
     12646 MEMB     109      SOPE     C213     CTL2    -0.180000       12.0110           0
     12647 MEMB     109      SOPE     H13R     HAL2     0.900000E-01   1.00800           0
     12648 MEMB     109      SOPE     H13S     HAL2     0.900000E-01   1.00800           0
     12649 MEMB     109      SOPE     C214     CTL2    -0.180000       12.0110           0
     12650 MEMB     109      SOPE     H14R     HAL2     0.900000E-01   1.00800           0
     12651 MEMB     109      SOPE     H14S     HAL2     0.900000E-01   1.00800           0
     12652 MEMB     109      SOPE     C215     CTL2    -0.180000       12.0110           0
     12653 MEMB     109      SOPE     H15R     HAL2     0.900000E-01   1.00800           0
     12654 MEMB     109      SOPE     H15S     HAL2     0.900000E-01   1.00800           0
     12655 MEMB     109      SOPE     C216     CTL2    -0.180000       12.0110           0
     12656 MEMB     109      SOPE     H16R     HAL2     0.900000E-01   1.00800           0
     12657 MEMB     109      SOPE     H16S     HAL2     0.900000E-01   1.00800           0
     12658 MEMB     109      SOPE     C217     CTL2    -0.180000       12.0110           0
     12659 MEMB     109      SOPE     H17R     HAL2     0.900000E-01   1.00800           0
     12660 MEMB     109      SOPE     H17S     HAL2     0.900000E-01   1.00800           0
     12661 MEMB     109      SOPE     C218     CTL3    -0.270000       12.0110           0
     12662 MEMB     109      SOPE     H18R     HAL3     0.900000E-01   1.00800           0
     12663 MEMB     109      SOPE     H18S     HAL3     0.900000E-01   1.00800           0
     12664 MEMB     109      SOPE     H18T     HAL3     0.900000E-01   1.00800           0
     12665 MEMB     109      SOPE     C33      CTL2    -0.180000       12.0110           0
     12666 MEMB     109      SOPE     H3X      HAL2     0.900000E-01   1.00800           0
     12667 MEMB     109      SOPE     H3Y      HAL2     0.900000E-01   1.00800           0
     12668 MEMB     109      SOPE     C34      CTL2    -0.180000       12.0110           0
     12669 MEMB     109      SOPE     H4X      HAL2     0.900000E-01   1.00800           0
     12670 MEMB     109      SOPE     H4Y      HAL2     0.900000E-01   1.00800           0
     12671 MEMB     109      SOPE     C35      CTL2    -0.180000       12.0110           0
     12672 MEMB     109      SOPE     H5X      HAL2     0.900000E-01   1.00800           0
     12673 MEMB     109      SOPE     H5Y      HAL2     0.900000E-01   1.00800           0
     12674 MEMB     109      SOPE     C36      CTL2    -0.180000       12.0110           0
     12675 MEMB     109      SOPE     H6X      HAL2     0.900000E-01   1.00800           0
     12676 MEMB     109      SOPE     H6Y      HAL2     0.900000E-01   1.00800           0
     12677 MEMB     109      SOPE     C37      CTL2    -0.180000       12.0110           0
     12678 MEMB     109      SOPE     H7X      HAL2     0.900000E-01   1.00800           0
     12679 MEMB     109      SOPE     H7Y      HAL2     0.900000E-01   1.00800           0
     12680 MEMB     109      SOPE     C38      CTL2    -0.180000       12.0110           0
     12681 MEMB     109      SOPE     H8X      HAL2     0.900000E-01   1.00800           0
     12682 MEMB     109      SOPE     H8Y      HAL2     0.900000E-01   1.00800           0
     12683 MEMB     109      SOPE     C39      CTL2    -0.180000       12.0110           0
     12684 MEMB     109      SOPE     H9X      HAL2     0.900000E-01   1.00800           0
     12685 MEMB     109      SOPE     H9Y      HAL2     0.900000E-01   1.00800           0
     12686 MEMB     109      SOPE     C310     CTL2    -0.180000       12.0110           0
     12687 MEMB     109      SOPE     H10X     HAL2     0.900000E-01   1.00800           0
     12688 MEMB     109      SOPE     H10Y     HAL2     0.900000E-01   1.00800           0
     12689 MEMB     109      SOPE     C311     CTL2    -0.180000       12.0110           0
     12690 MEMB     109      SOPE     H11X     HAL2     0.900000E-01   1.00800           0
     12691 MEMB     109      SOPE     H11Y     HAL2     0.900000E-01   1.00800           0
     12692 MEMB     109      SOPE     C312     CTL2    -0.180000       12.0110           0
     12693 MEMB     109      SOPE     H12X     HAL2     0.900000E-01   1.00800           0
     12694 MEMB     109      SOPE     H12Y     HAL2     0.900000E-01   1.00800           0
     12695 MEMB     109      SOPE     C313     CTL2    -0.180000       12.0110           0
     12696 MEMB     109      SOPE     H13X     HAL2     0.900000E-01   1.00800           0
     12697 MEMB     109      SOPE     H13Y     HAL2     0.900000E-01   1.00800           0
     12698 MEMB     109      SOPE     C314     CTL2    -0.180000       12.0110           0
     12699 MEMB     109      SOPE     H14X     HAL2     0.900000E-01   1.00800           0
     12700 MEMB     109      SOPE     H14Y     HAL2     0.900000E-01   1.00800           0
     12701 MEMB     109      SOPE     C315     CTL2    -0.180000       12.0110           0
     12702 MEMB     109      SOPE     H15X     HAL2     0.900000E-01   1.00800           0
     12703 MEMB     109      SOPE     H15Y     HAL2     0.900000E-01   1.00800           0
     12704 MEMB     109      SOPE     C316     CTL2    -0.180000       12.0110           0
     12705 MEMB     109      SOPE     H16X     HAL2     0.900000E-01   1.00800           0
     12706 MEMB     109      SOPE     H16Y     HAL2     0.900000E-01   1.00800           0
     12707 MEMB     109      SOPE     C317     CTL2    -0.180000       12.0110           0
     12708 MEMB     109      SOPE     H17X     HAL2     0.900000E-01   1.00800           0
     12709 MEMB     109      SOPE     H17Y     HAL2     0.900000E-01   1.00800           0
     12710 MEMB     109      SOPE     C318     CTL3    -0.270000       12.0110           0
     12711 MEMB     109      SOPE     H18X     HAL3     0.900000E-01   1.00800           0
     12712 MEMB     109      SOPE     H18Y     HAL3     0.900000E-01   1.00800           0
     12713 MEMB     109      SOPE     H18Z     HAL3     0.900000E-01   1.00800           0
     12714 MEMB     110      CHL1     C3       CRL1     0.140000       12.0110           0
     12715 MEMB     110      CHL1     H3       HGA1     0.900000E-01   1.00800           0
     12716 MEMB     110      CHL1     O3       OHL     -0.660000       15.9994           0
     12717 MEMB     110      CHL1     H3'      HOL      0.430000       1.00800           0
     12718 MEMB     110      CHL1     C4       CRL2    -0.180000       12.0110           0
     12719 MEMB     110      CHL1     H4A      HGA2     0.900000E-01   1.00800           0
     12720 MEMB     110      CHL1     H4B      HGA2     0.900000E-01   1.00800           0
     12721 MEMB     110      CHL1     C5       CEL1      0.00000       12.0110           0
     12722 MEMB     110      CHL1     C6       CEL1    -0.150000       12.0110           0
     12723 MEMB     110      CHL1     H6       HEL1     0.150000       1.00800           0
     12724 MEMB     110      CHL1     C7       CRL2    -0.180000       12.0110           0
     12725 MEMB     110      CHL1     H7A      HGA2     0.900000E-01   1.00800           0
     12726 MEMB     110      CHL1     H7B      HGA2     0.900000E-01   1.00800           0
     12727 MEMB     110      CHL1     C8       CRL1    -0.900000E-01   12.0110           0
     12728 MEMB     110      CHL1     H8       HGA1     0.900000E-01   1.00800           0
     12729 MEMB     110      CHL1     C14      CRL1    -0.900000E-01   12.0110           0
     12730 MEMB     110      CHL1     H14      HGA1     0.900000E-01   1.00800           0
     12731 MEMB     110      CHL1     C15      CRL2    -0.180000       12.0110           0
     12732 MEMB     110      CHL1     H15A     HGA2     0.900000E-01   1.00800           0
     12733 MEMB     110      CHL1     H15B     HGA2     0.900000E-01   1.00800           0
     12734 MEMB     110      CHL1     C16      CRL2    -0.180000       12.0110           0
     12735 MEMB     110      CHL1     H16A     HGA2     0.900000E-01   1.00800           0
     12736 MEMB     110      CHL1     H16B     HGA2     0.900000E-01   1.00800           0
     12737 MEMB     110      CHL1     C17      CRL1    -0.900000E-01   12.0110           0
     12738 MEMB     110      CHL1     H17      HGA1     0.900000E-01   1.00800           0
     12739 MEMB     110      CHL1     C13      CRL1      0.00000       12.0110           0
     12740 MEMB     110      CHL1     C18      CTL3    -0.270000       12.0110           0
     12741 MEMB     110      CHL1     H18A     HAL3     0.900000E-01   1.00800           0
     12742 MEMB     110      CHL1     H18B     HAL3     0.900000E-01   1.00800           0
     12743 MEMB     110      CHL1     H18C     HAL3     0.900000E-01   1.00800           0
     12744 MEMB     110      CHL1     C12      CRL2    -0.180000       12.0110           0
     12745 MEMB     110      CHL1     H12A     HGA2     0.900000E-01   1.00800           0
     12746 MEMB     110      CHL1     H12B     HGA2     0.900000E-01   1.00800           0
     12747 MEMB     110      CHL1     C11      CRL2    -0.180000       12.0110           0
     12748 MEMB     110      CHL1     H11A     HGA2     0.900000E-01   1.00800           0
     12749 MEMB     110      CHL1     H11B     HGA2     0.900000E-01   1.00800           0
     12750 MEMB     110      CHL1     C9       CRL1    -0.900000E-01   12.0110           0
     12751 MEMB     110      CHL1     H9       HGA1     0.900000E-01   1.00800           0
     12752 MEMB     110      CHL1     C10      CRL1      0.00000       12.0110           0
     12753 MEMB     110      CHL1     C19      CTL3    -0.270000       12.0110           0
     12754 MEMB     110      CHL1     H19A     HAL3     0.900000E-01   1.00800           0
     12755 MEMB     110      CHL1     H19B     HAL3     0.900000E-01   1.00800           0
     12756 MEMB     110      CHL1     H19C     HAL3     0.900000E-01   1.00800           0
     12757 MEMB     110      CHL1     C1       CRL2    -0.180000       12.0110           0
     12758 MEMB     110      CHL1     H1A      HGA2     0.900000E-01   1.00800           0
     12759 MEMB     110      CHL1     H1B      HGA2     0.900000E-01   1.00800           0
     12760 MEMB     110      CHL1     C2       CRL2    -0.180000       12.0110           0
     12761 MEMB     110      CHL1     H2A      HGA2     0.900000E-01   1.00800           0
     12762 MEMB     110      CHL1     H2B      HGA2     0.900000E-01   1.00800           0
     12763 MEMB     110      CHL1     C20      CTL1    -0.900000E-01   12.0110           0
     12764 MEMB     110      CHL1     H20      HAL1     0.900000E-01   1.00800           0
     12765 MEMB     110      CHL1     C21      CTL3    -0.270000       12.0110           0
     12766 MEMB     110      CHL1     H21A     HAL3     0.900000E-01   1.00800           0
     12767 MEMB     110      CHL1     H21B     HAL3     0.900000E-01   1.00800           0
     12768 MEMB     110      CHL1     H21C     HAL3     0.900000E-01   1.00800           0
     12769 MEMB     110      CHL1     C22      CTL2    -0.180000       12.0110           0
     12770 MEMB     110      CHL1     H22A     HAL2     0.900000E-01   1.00800           0
     12771 MEMB     110      CHL1     H22B     HAL2     0.900000E-01   1.00800           0
     12772 MEMB     110      CHL1     C23      CTL2    -0.180000       12.0110           0
     12773 MEMB     110      CHL1     H23A     HAL2     0.900000E-01   1.00800           0
     12774 MEMB     110      CHL1     H23B     HAL2     0.900000E-01   1.00800           0
     12775 MEMB     110      CHL1     C24      CTL2    -0.180000       12.0110           0
     12776 MEMB     110      CHL1     H24A     HAL2     0.900000E-01   1.00800           0
     12777 MEMB     110      CHL1     H24B     HAL2     0.900000E-01   1.00800           0
     12778 MEMB     110      CHL1     C25      CTL1    -0.900000E-01   12.0110           0
     12779 MEMB     110      CHL1     H25      HAL1     0.900000E-01   1.00800           0
     12780 MEMB     110      CHL1     C26      CTL3    -0.270000       12.0110           0
     12781 MEMB     110      CHL1     H26A     HAL3     0.900000E-01   1.00800           0
     12782 MEMB     110      CHL1     H26B     HAL3     0.900000E-01   1.00800           0
     12783 MEMB     110      CHL1     H26C     HAL3     0.900000E-01   1.00800           0
     12784 MEMB     110      CHL1     C27      CTL3    -0.270000       12.0110           0
     12785 MEMB     110      CHL1     H27A     HAL3     0.900000E-01   1.00800           0
     12786 MEMB     110      CHL1     H27B     HAL3     0.900000E-01   1.00800           0
     12787 MEMB     110      CHL1     H27C     HAL3     0.900000E-01   1.00800           0
     12788 MEMB     111      SLPC     N        NTL     -0.600000       14.0070           0
     12789 MEMB     111      SLPC     C13      CTL5    -0.350000       12.0110           0
     12790 MEMB     111      SLPC     H13A     HL       0.250000       1.00800           0
     12791 MEMB     111      SLPC     H13B     HL       0.250000       1.00800           0
     12792 MEMB     111      SLPC     H13C     HL       0.250000       1.00800           0
     12793 MEMB     111      SLPC     C14      CTL5    -0.350000       12.0110           0
     12794 MEMB     111      SLPC     H14A     HL       0.250000       1.00800           0
     12795 MEMB     111      SLPC     H14B     HL       0.250000       1.00800           0
     12796 MEMB     111      SLPC     H14C     HL       0.250000       1.00800           0
     12797 MEMB     111      SLPC     C15      CTL5    -0.350000       12.0110           0
     12798 MEMB     111      SLPC     H15A     HL       0.250000       1.00800           0
     12799 MEMB     111      SLPC     H15B     HL       0.250000       1.00800           0
     12800 MEMB     111      SLPC     H15C     HL       0.250000       1.00800           0
     12801 MEMB     111      SLPC     C12      CTL2    -0.100000       12.0110           0
     12802 MEMB     111      SLPC     H12A     HL       0.250000       1.00800           0
     12803 MEMB     111      SLPC     H12B     HL       0.250000       1.00800           0
     12804 MEMB     111      SLPC     C11      CTL2    -0.800000E-01   12.0110           0
     12805 MEMB     111      SLPC     H11A     HAL2     0.900000E-01   1.00800           0
     12806 MEMB     111      SLPC     H11B     HAL2     0.900000E-01   1.00800           0
     12807 MEMB     111      SLPC     P        PL        1.50000       30.9740           0
     12808 MEMB     111      SLPC     O13      O2L     -0.780000       15.9994           0
     12809 MEMB     111      SLPC     O14      O2L     -0.780000       15.9994           0
     12810 MEMB     111      SLPC     O12      OSLP    -0.570000       15.9994           0
     12811 MEMB     111      SLPC     O11      OSLP    -0.570000       15.9994           0
     12812 MEMB     111      SLPC     C1       CTL2    -0.800000E-01   12.0110           0
     12813 MEMB     111      SLPC     HA       HAL2     0.900000E-01   1.00800           0
     12814 MEMB     111      SLPC     HB       HAL2     0.900000E-01   1.00800           0
     12815 MEMB     111      SLPC     C2       CTL1     0.170000       12.0110           0
     12816 MEMB     111      SLPC     HS       HAL1     0.900000E-01   1.00800           0
     12817 MEMB     111      SLPC     O21      OSL     -0.490000       15.9994           0
     12818 MEMB     111      SLPC     C21      CL       0.900000       12.0110           0
     12819 MEMB     111      SLPC     O22      OBL     -0.630000       15.9994           0
     12820 MEMB     111      SLPC     C22      CTL2    -0.220000       12.0110           0
     12821 MEMB     111      SLPC     H2R      HAL2     0.900000E-01   1.00800           0
     12822 MEMB     111      SLPC     H2S      HAL2     0.900000E-01   1.00800           0
     12823 MEMB     111      SLPC     C3       CTL2     0.800000E-01   12.0110           0
     12824 MEMB     111      SLPC     HX       HAL2     0.900000E-01   1.00800           0
     12825 MEMB     111      SLPC     HY       HAL2     0.900000E-01   1.00800           0
     12826 MEMB     111      SLPC     O31      OSL     -0.490000       15.9994           0
     12827 MEMB     111      SLPC     C31      CL       0.900000       12.0110           0
     12828 MEMB     111      SLPC     O32      OBL     -0.630000       15.9994           0
     12829 MEMB     111      SLPC     C32      CTL2    -0.220000       12.0110           0
     12830 MEMB     111      SLPC     H2X      HAL2     0.900000E-01   1.00800           0
     12831 MEMB     111      SLPC     H2Y      HAL2     0.900000E-01   1.00800           0
     12832 MEMB     111      SLPC     C23      CTL2    -0.180000       12.0110           0
     12833 MEMB     111      SLPC     H3R      HAL2     0.900000E-01   1.00800           0
     12834 MEMB     111      SLPC     H3S      HAL2     0.900000E-01   1.00800           0
     12835 MEMB     111      SLPC     C24      CTL2    -0.180000       12.0110           0
     12836 MEMB     111      SLPC     H4R      HAL2     0.900000E-01   1.00800           0
     12837 MEMB     111      SLPC     H4S      HAL2     0.900000E-01   1.00800           0
     12838 MEMB     111      SLPC     C25      CTL2    -0.180000       12.0110           0
     12839 MEMB     111      SLPC     H5R      HAL2     0.900000E-01   1.00800           0
     12840 MEMB     111      SLPC     H5S      HAL2     0.900000E-01   1.00800           0
     12841 MEMB     111      SLPC     C26      CTL2    -0.180000       12.0110           0
     12842 MEMB     111      SLPC     H6R      HAL2     0.900000E-01   1.00800           0
     12843 MEMB     111      SLPC     H6S      HAL2     0.900000E-01   1.00800           0
     12844 MEMB     111      SLPC     C27      CTL2    -0.180000       12.0110           0
     12845 MEMB     111      SLPC     H7R      HAL2     0.900000E-01   1.00800           0
     12846 MEMB     111      SLPC     H7S      HAL2     0.900000E-01   1.00800           0
     12847 MEMB     111      SLPC     C28      CTL2    -0.180000       12.0110           0
     12848 MEMB     111      SLPC     H8R      HAL2     0.900000E-01   1.00800           0
     12849 MEMB     111      SLPC     H8S      HAL2     0.900000E-01   1.00800           0
     12850 MEMB     111      SLPC     C29      CEL1    -0.150000       12.0110           0
     12851 MEMB     111      SLPC     H9R      HEL1     0.150000       1.00800           0
     12852 MEMB     111      SLPC     C210     CEL1    -0.150000       12.0110           0
     12853 MEMB     111      SLPC     H10R     HEL1     0.150000       1.00800           0
     12854 MEMB     111      SLPC     C211     CTL2    -0.180000       12.0110           0
     12855 MEMB     111      SLPC     H11R     HAL2     0.900000E-01   1.00800           0
     12856 MEMB     111      SLPC     H11S     HAL2     0.900000E-01   1.00800           0
     12857 MEMB     111      SLPC     C212     CEL1    -0.150000       12.0110           0
     12858 MEMB     111      SLPC     H12R     HEL1     0.150000       1.00800           0
     12859 MEMB     111      SLPC     C213     CEL1    -0.150000       12.0110           0
     12860 MEMB     111      SLPC     H13R     HEL1     0.150000       1.00800           0
     12861 MEMB     111      SLPC     C214     CTL2    -0.180000       12.0110           0
     12862 MEMB     111      SLPC     H14R     HAL2     0.900000E-01   1.00800           0
     12863 MEMB     111      SLPC     H14S     HAL2     0.900000E-01   1.00800           0
     12864 MEMB     111      SLPC     C215     CTL2    -0.180000       12.0110           0
     12865 MEMB     111      SLPC     H15R     HAL2     0.900000E-01   1.00800           0
     12866 MEMB     111      SLPC     H15S     HAL2     0.900000E-01   1.00800           0
     12867 MEMB     111      SLPC     C216     CTL2    -0.180000       12.0110           0
     12868 MEMB     111      SLPC     H16R     HAL2     0.900000E-01   1.00800           0
     12869 MEMB     111      SLPC     H16S     HAL2     0.900000E-01   1.00800           0
     12870 MEMB     111      SLPC     C217     CTL2    -0.180000       12.0110           0
     12871 MEMB     111      SLPC     H17R     HAL2     0.900000E-01   1.00800           0
     12872 MEMB     111      SLPC     H17S     HAL2     0.900000E-01   1.00800           0
     12873 MEMB     111      SLPC     C218     CTL3    -0.270000       12.0110           0
     12874 MEMB     111      SLPC     H18R     HAL3     0.900000E-01   1.00800           0
     12875 MEMB     111      SLPC     H18S     HAL3     0.900000E-01   1.00800           0
     12876 MEMB     111      SLPC     H18T     HAL3     0.900000E-01   1.00800           0
     12877 MEMB     111      SLPC     C33      CTL2    -0.180000       12.0110           0
     12878 MEMB     111      SLPC     H3X      HAL2     0.900000E-01   1.00800           0
     12879 MEMB     111      SLPC     H3Y      HAL2     0.900000E-01   1.00800           0
     12880 MEMB     111      SLPC     C34      CTL2    -0.180000       12.0110           0
     12881 MEMB     111      SLPC     H4X      HAL2     0.900000E-01   1.00800           0
     12882 MEMB     111      SLPC     H4Y      HAL2     0.900000E-01   1.00800           0
     12883 MEMB     111      SLPC     C35      CTL2    -0.180000       12.0110           0
     12884 MEMB     111      SLPC     H5X      HAL2     0.900000E-01   1.00800           0
     12885 MEMB     111      SLPC     H5Y      HAL2     0.900000E-01   1.00800           0
     12886 MEMB     111      SLPC     C36      CTL2    -0.180000       12.0110           0
     12887 MEMB     111      SLPC     H6X      HAL2     0.900000E-01   1.00800           0
     12888 MEMB     111      SLPC     H6Y      HAL2     0.900000E-01   1.00800           0
     12889 MEMB     111      SLPC     C37      CTL2    -0.180000       12.0110           0
     12890 MEMB     111      SLPC     H7X      HAL2     0.900000E-01   1.00800           0
     12891 MEMB     111      SLPC     H7Y      HAL2     0.900000E-01   1.00800           0
     12892 MEMB     111      SLPC     C38      CTL2    -0.180000       12.0110           0
     12893 MEMB     111      SLPC     H8X      HAL2     0.900000E-01   1.00800           0
     12894 MEMB     111      SLPC     H8Y      HAL2     0.900000E-01   1.00800           0
     12895 MEMB     111      SLPC     C39      CTL2    -0.180000       12.0110           0
     12896 MEMB     111      SLPC     H9X      HAL2     0.900000E-01   1.00800           0
     12897 MEMB     111      SLPC     H9Y      HAL2     0.900000E-01   1.00800           0
     12898 MEMB     111      SLPC     C310     CTL2    -0.180000       12.0110           0
     12899 MEMB     111      SLPC     H10X     HAL2     0.900000E-01   1.00800           0
     12900 MEMB     111      SLPC     H10Y     HAL2     0.900000E-01   1.00800           0
     12901 MEMB     111      SLPC     C311     CTL2    -0.180000       12.0110           0
     12902 MEMB     111      SLPC     H11X     HAL2     0.900000E-01   1.00800           0
     12903 MEMB     111      SLPC     H11Y     HAL2     0.900000E-01   1.00800           0
     12904 MEMB     111      SLPC     C312     CTL2    -0.180000       12.0110           0
     12905 MEMB     111      SLPC     H12X     HAL2     0.900000E-01   1.00800           0
     12906 MEMB     111      SLPC     H12Y     HAL2     0.900000E-01   1.00800           0
     12907 MEMB     111      SLPC     C313     CTL2    -0.180000       12.0110           0
     12908 MEMB     111      SLPC     H13X     HAL2     0.900000E-01   1.00800           0
     12909 MEMB     111      SLPC     H13Y     HAL2     0.900000E-01   1.00800           0
     12910 MEMB     111      SLPC     C314     CTL2    -0.180000       12.0110           0
     12911 MEMB     111      SLPC     H14X     HAL2     0.900000E-01   1.00800           0
     12912 MEMB     111      SLPC     H14Y     HAL2     0.900000E-01   1.00800           0
     12913 MEMB     111      SLPC     C315     CTL2    -0.180000       12.0110           0
     12914 MEMB     111      SLPC     H15X     HAL2     0.900000E-01   1.00800           0
     12915 MEMB     111      SLPC     H15Y     HAL2     0.900000E-01   1.00800           0
     12916 MEMB     111      SLPC     C316     CTL2    -0.180000       12.0110           0
     12917 MEMB     111      SLPC     H16X     HAL2     0.900000E-01   1.00800           0
     12918 MEMB     111      SLPC     H16Y     HAL2     0.900000E-01   1.00800           0
     12919 MEMB     111      SLPC     C317     CTL2    -0.180000       12.0110           0
     12920 MEMB     111      SLPC     H17X     HAL2     0.900000E-01   1.00800           0
     12921 MEMB     111      SLPC     H17Y     HAL2     0.900000E-01   1.00800           0
     12922 MEMB     111      SLPC     C318     CTL3    -0.270000       12.0110           0
     12923 MEMB     111      SLPC     H18X     HAL3     0.900000E-01   1.00800           0
     12924 MEMB     111      SLPC     H18Y     HAL3     0.900000E-01   1.00800           0
     12925 MEMB     111      SLPC     H18Z     HAL3     0.900000E-01   1.00800           0
     12926 MEMB     112      CHL1     C3       CRL1     0.140000       12.0110           0
     12927 MEMB     112      CHL1     H3       HGA1     0.900000E-01   1.00800           0
     12928 MEMB     112      CHL1     O3       OHL     -0.660000       15.9994           0
     12929 MEMB     112      CHL1     H3'      HOL      0.430000       1.00800           0
     12930 MEMB     112      CHL1     C4       CRL2    -0.180000       12.0110           0
     12931 MEMB     112      CHL1     H4A      HGA2     0.900000E-01   1.00800           0
     12932 MEMB     112      CHL1     H4B      HGA2     0.900000E-01   1.00800           0
     12933 MEMB     112      CHL1     C5       CEL1      0.00000       12.0110           0
     12934 MEMB     112      CHL1     C6       CEL1    -0.150000       12.0110           0
     12935 MEMB     112      CHL1     H6       HEL1     0.150000       1.00800           0
     12936 MEMB     112      CHL1     C7       CRL2    -0.180000       12.0110           0
     12937 MEMB     112      CHL1     H7A      HGA2     0.900000E-01   1.00800           0
     12938 MEMB     112      CHL1     H7B      HGA2     0.900000E-01   1.00800           0
     12939 MEMB     112      CHL1     C8       CRL1    -0.900000E-01   12.0110           0
     12940 MEMB     112      CHL1     H8       HGA1     0.900000E-01   1.00800           0
     12941 MEMB     112      CHL1     C14      CRL1    -0.900000E-01   12.0110           0
     12942 MEMB     112      CHL1     H14      HGA1     0.900000E-01   1.00800           0
     12943 MEMB     112      CHL1     C15      CRL2    -0.180000       12.0110           0
     12944 MEMB     112      CHL1     H15A     HGA2     0.900000E-01   1.00800           0
     12945 MEMB     112      CHL1     H15B     HGA2     0.900000E-01   1.00800           0
     12946 MEMB     112      CHL1     C16      CRL2    -0.180000       12.0110           0
     12947 MEMB     112      CHL1     H16A     HGA2     0.900000E-01   1.00800           0
     12948 MEMB     112      CHL1     H16B     HGA2     0.900000E-01   1.00800           0
     12949 MEMB     112      CHL1     C17      CRL1    -0.900000E-01   12.0110           0
     12950 MEMB     112      CHL1     H17      HGA1     0.900000E-01   1.00800           0
     12951 MEMB     112      CHL1     C13      CRL1      0.00000       12.0110           0
     12952 MEMB     112      CHL1     C18      CTL3    -0.270000       12.0110           0
     12953 MEMB     112      CHL1     H18A     HAL3     0.900000E-01   1.00800           0
     12954 MEMB     112      CHL1     H18B     HAL3     0.900000E-01   1.00800           0
     12955 MEMB     112      CHL1     H18C     HAL3     0.900000E-01   1.00800           0
     12956 MEMB     112      CHL1     C12      CRL2    -0.180000       12.0110           0
     12957 MEMB     112      CHL1     H12A     HGA2     0.900000E-01   1.00800           0
     12958 MEMB     112      CHL1     H12B     HGA2     0.900000E-01   1.00800           0
     12959 MEMB     112      CHL1     C11      CRL2    -0.180000       12.0110           0
     12960 MEMB     112      CHL1     H11A     HGA2     0.900000E-01   1.00800           0
     12961 MEMB     112      CHL1     H11B     HGA2     0.900000E-01   1.00800           0
     12962 MEMB     112      CHL1     C9       CRL1    -0.900000E-01   12.0110           0
     12963 MEMB     112      CHL1     H9       HGA1     0.900000E-01   1.00800           0
     12964 MEMB     112      CHL1     C10      CRL1      0.00000       12.0110           0
     12965 MEMB     112      CHL1     C19      CTL3    -0.270000       12.0110           0
     12966 MEMB     112      CHL1     H19A     HAL3     0.900000E-01   1.00800           0
     12967 MEMB     112      CHL1     H19B     HAL3     0.900000E-01   1.00800           0
     12968 MEMB     112      CHL1     H19C     HAL3     0.900000E-01   1.00800           0
     12969 MEMB     112      CHL1     C1       CRL2    -0.180000       12.0110           0
     12970 MEMB     112      CHL1     H1A      HGA2     0.900000E-01   1.00800           0
     12971 MEMB     112      CHL1     H1B      HGA2     0.900000E-01   1.00800           0
     12972 MEMB     112      CHL1     C2       CRL2    -0.180000       12.0110           0
     12973 MEMB     112      CHL1     H2A      HGA2     0.900000E-01   1.00800           0
     12974 MEMB     112      CHL1     H2B      HGA2     0.900000E-01   1.00800           0
     12975 MEMB     112      CHL1     C20      CTL1    -0.900000E-01   12.0110           0
     12976 MEMB     112      CHL1     H20      HAL1     0.900000E-01   1.00800           0
     12977 MEMB     112      CHL1     C21      CTL3    -0.270000       12.0110           0
     12978 MEMB     112      CHL1     H21A     HAL3     0.900000E-01   1.00800           0
     12979 MEMB     112      CHL1     H21B     HAL3     0.900000E-01   1.00800           0
     12980 MEMB     112      CHL1     H21C     HAL3     0.900000E-01   1.00800           0
     12981 MEMB     112      CHL1     C22      CTL2    -0.180000       12.0110           0
     12982 MEMB     112      CHL1     H22A     HAL2     0.900000E-01   1.00800           0
     12983 MEMB     112      CHL1     H22B     HAL2     0.900000E-01   1.00800           0
     12984 MEMB     112      CHL1     C23      CTL2    -0.180000       12.0110           0
     12985 MEMB     112      CHL1     H23A     HAL2     0.900000E-01   1.00800           0
     12986 MEMB     112      CHL1     H23B     HAL2     0.900000E-01   1.00800           0
     12987 MEMB     112      CHL1     C24      CTL2    -0.180000       12.0110           0
     12988 MEMB     112      CHL1     H24A     HAL2     0.900000E-01   1.00800           0
     12989 MEMB     112      CHL1     H24B     HAL2     0.900000E-01   1.00800           0
     12990 MEMB     112      CHL1     C25      CTL1    -0.900000E-01   12.0110           0
     12991 MEMB     112      CHL1     H25      HAL1     0.900000E-01   1.00800           0
     12992 MEMB     112      CHL1     C26      CTL3    -0.270000       12.0110           0
     12993 MEMB     112      CHL1     H26A     HAL3     0.900000E-01   1.00800           0
     12994 MEMB     112      CHL1     H26B     HAL3     0.900000E-01   1.00800           0
     12995 MEMB     112      CHL1     H26C     HAL3     0.900000E-01   1.00800           0
     12996 MEMB     112      CHL1     C27      CTL3    -0.270000       12.0110           0
     12997 MEMB     112      CHL1     H27A     HAL3     0.900000E-01   1.00800           0
     12998 MEMB     112      CHL1     H27B     HAL3     0.900000E-01   1.00800           0
     12999 MEMB     112      CHL1     H27C     HAL3     0.900000E-01   1.00800           0
     13000 MEMB     113      OSM      N        NTL     -0.600000       14.0070           0
     13001 MEMB     113      OSM      C15      CTL5    -0.350000       12.0110           0
     13002 MEMB     113      OSM      H15A     HL       0.250000       1.00800           0
     13003 MEMB     113      OSM      H15B     HL       0.250000       1.00800           0
     13004 MEMB     113      OSM      H15C     HL       0.250000       1.00800           0
     13005 MEMB     113      OSM      C14      CTL5    -0.350000       12.0110           0
     13006 MEMB     113      OSM      H14A     HL       0.250000       1.00800           0
     13007 MEMB     113      OSM      H14B     HL       0.250000       1.00800           0
     13008 MEMB     113      OSM      H14C     HL       0.250000       1.00800           0
     13009 MEMB     113      OSM      C13      CTL5    -0.350000       12.0110           0
     13010 MEMB     113      OSM      H13A     HL       0.250000       1.00800           0
     13011 MEMB     113      OSM      H13B     HL       0.250000       1.00800           0
     13012 MEMB     113      OSM      H13C     HL       0.250000       1.00800           0
     13013 MEMB     113      OSM      C12      CTL2    -0.100000       12.0110           0
     13014 MEMB     113      OSM      H12A     HL       0.250000       1.00800           0
     13015 MEMB     113      OSM      H12B     HL       0.250000       1.00800           0
     13016 MEMB     113      OSM      C11      CTL2    -0.800000E-01   12.0110           0
     13017 MEMB     113      OSM      H11A     HAL2     0.900000E-01   1.00800           0
     13018 MEMB     113      OSM      H11B     HAL2     0.900000E-01   1.00800           0
     13019 MEMB     113      OSM      P        PL        1.50000       30.9740           0
     13020 MEMB     113      OSM      O13      O2L     -0.780000       15.9994           0
     13021 MEMB     113      OSM      O14      O2L     -0.780000       15.9994           0
     13022 MEMB     113      OSM      O11      OSLP    -0.570000       15.9994           0
     13023 MEMB     113      OSM      O12      OSLP    -0.570000       15.9994           0
     13024 MEMB     113      OSM      C1S      CTL2    -0.800000E-01   12.0110           0
     13025 MEMB     113      OSM      H1S      HAL2     0.900000E-01   1.00800           0
     13026 MEMB     113      OSM      H1T      HAL2     0.900000E-01   1.00800           0
     13027 MEMB     113      OSM      NF       NHL     -0.700000       14.0070           0
     13028 MEMB     113      OSM      HNF      H        0.350000       1.00800           0
     13029 MEMB     113      OSM      C2S      CTL1     0.300000       12.0110           0
     13030 MEMB     113      OSM      H2S      HAL1     0.500000E-01   1.00800           0
     13031 MEMB     113      OSM      C3S      CTO1     0.500000       12.0110           0
     13032 MEMB     113      OSM      H3S      HAL1    -0.110000       1.00800           0
     13033 MEMB     113      OSM      O3       OHL     -0.690000       15.9994           0
     13034 MEMB     113      OSM      HO3      HOL      0.300000       1.00800           0
     13035 MEMB     113      OSM      C4S      CEL3    -0.150000       12.0110           0
     13036 MEMB     113      OSM      H4S      HEL1     0.150000       1.00800           0
     13037 MEMB     113      OSM      C5S      CEL3    -0.150000       12.0110           0
     13038 MEMB     113      OSM      H5S      HEL1     0.150000       1.00800           0
     13039 MEMB     113      OSM      C6S      CTL2    -0.180000       12.0110           0
     13040 MEMB     113      OSM      H6S      HAL2     0.900000E-01   1.00800           0
     13041 MEMB     113      OSM      H6T      HAL2     0.900000E-01   1.00800           0
     13042 MEMB     113      OSM      C7S      CTL2    -0.180000       12.0110           0
     13043 MEMB     113      OSM      H7S      HAL2     0.900000E-01   1.00800           0
     13044 MEMB     113      OSM      H7T      HAL2     0.900000E-01   1.00800           0
     13045 MEMB     113      OSM      C8S      CTL2    -0.180000       12.0110           0
     13046 MEMB     113      OSM      H8S      HAL2     0.900000E-01   1.00800           0
     13047 MEMB     113      OSM      H8T      HAL2     0.900000E-01   1.00800           0
     13048 MEMB     113      OSM      C9S      CTL2    -0.180000       12.0110           0
     13049 MEMB     113      OSM      H9S      HAL2     0.900000E-01   1.00800           0
     13050 MEMB     113      OSM      H9T      HAL2     0.900000E-01   1.00800           0
     13051 MEMB     113      OSM      C10S     CTL2    -0.180000       12.0110           0
     13052 MEMB     113      OSM      H10S     HAL2     0.900000E-01   1.00800           0
     13053 MEMB     113      OSM      H10T     HAL2     0.900000E-01   1.00800           0
     13054 MEMB     113      OSM      C11S     CTL2    -0.180000       12.0110           0
     13055 MEMB     113      OSM      H11S     HAL2     0.900000E-01   1.00800           0
     13056 MEMB     113      OSM      H11T     HAL2     0.900000E-01   1.00800           0
     13057 MEMB     113      OSM      C12S     CTL2    -0.180000       12.0110           0
     13058 MEMB     113      OSM      H12S     HAL2     0.900000E-01   1.00800           0
     13059 MEMB     113      OSM      H12T     HAL2     0.900000E-01   1.00800           0
     13060 MEMB     113      OSM      C13S     CTL2    -0.180000       12.0110           0
     13061 MEMB     113      OSM      H13S     HAL2     0.900000E-01   1.00800           0
     13062 MEMB     113      OSM      H13T     HAL2     0.900000E-01   1.00800           0
     13063 MEMB     113      OSM      C14S     CTL2    -0.180000       12.0110           0
     13064 MEMB     113      OSM      H14S     HAL2     0.900000E-01   1.00800           0
     13065 MEMB     113      OSM      H14T     HAL2     0.900000E-01   1.00800           0
     13066 MEMB     113      OSM      C15S     CTL2    -0.180000       12.0110           0
     13067 MEMB     113      OSM      H15S     HAL2     0.900000E-01   1.00800           0
     13068 MEMB     113      OSM      H15T     HAL2     0.900000E-01   1.00800           0
     13069 MEMB     113      OSM      C16S     CTL2    -0.180000       12.0110           0
     13070 MEMB     113      OSM      H16S     HAL2     0.900000E-01   1.00800           0
     13071 MEMB     113      OSM      H16T     HAL2     0.900000E-01   1.00800           0
     13072 MEMB     113      OSM      C17S     CTL2    -0.180000       12.0110           0
     13073 MEMB     113      OSM      H17S     HAL2     0.900000E-01   1.00800           0
     13074 MEMB     113      OSM      H17T     HAL2     0.900000E-01   1.00800           0
     13075 MEMB     113      OSM      C18S     CTL3    -0.270000       12.0110           0
     13076 MEMB     113      OSM      H18S     HAL3     0.900000E-01   1.00800           0
     13077 MEMB     113      OSM      H18T     HAL3     0.900000E-01   1.00800           0
     13078 MEMB     113      OSM      H18U     HAL3     0.900000E-01   1.00800           0
     13079 MEMB     113      OSM      C1F      C        0.550000       12.0110           0
     13080 MEMB     113      OSM      OF       O       -0.600000       15.9994           0
     13081 MEMB     113      OSM      C2F      CTL2    -0.700000E-01   12.0110           0
     13082 MEMB     113      OSM      H2F      HAL2     0.600000E-01   1.00800           0
     13083 MEMB     113      OSM      H2G      HAL2     0.600000E-01   1.00800           0
     13084 MEMB     113      OSM      C3F      CTL2    -0.180000       12.0110           0
     13085 MEMB     113      OSM      H3F      HAL2     0.900000E-01   1.00800           0
     13086 MEMB     113      OSM      H3G      HAL2     0.900000E-01   1.00800           0
     13087 MEMB     113      OSM      C4F      CTL2    -0.180000       12.0110           0
     13088 MEMB     113      OSM      H4F      HAL2     0.900000E-01   1.00800           0
     13089 MEMB     113      OSM      H4G      HAL2     0.900000E-01   1.00800           0
     13090 MEMB     113      OSM      C5F      CTL2    -0.180000       12.0110           0
     13091 MEMB     113      OSM      H5F      HAL2     0.900000E-01   1.00800           0
     13092 MEMB     113      OSM      H5G      HAL2     0.900000E-01   1.00800           0
     13093 MEMB     113      OSM      C6F      CTL2    -0.180000       12.0110           0
     13094 MEMB     113      OSM      H6F      HAL2     0.900000E-01   1.00800           0
     13095 MEMB     113      OSM      H6G      HAL2     0.900000E-01   1.00800           0
     13096 MEMB     113      OSM      C7F      CTL2    -0.180000       12.0110           0
     13097 MEMB     113      OSM      H7F      HAL2     0.900000E-01   1.00800           0
     13098 MEMB     113      OSM      H7G      HAL2     0.900000E-01   1.00800           0
     13099 MEMB     113      OSM      C8F      CTL2    -0.180000       12.0110           0
     13100 MEMB     113      OSM      H8F      HAL2     0.900000E-01   1.00800           0
     13101 MEMB     113      OSM      H8G      HAL2     0.900000E-01   1.00800           0
     13102 MEMB     113      OSM      C9F      CEL1    -0.150000       12.0110           0
     13103 MEMB     113      OSM      H9F      HEL1     0.150000       1.00800           0
     13104 MEMB     113      OSM      C10F     CEL1    -0.150000       12.0110           0
     13105 MEMB     113      OSM      H10F     HEL1     0.150000       1.00800           0
     13106 MEMB     113      OSM      C11F     CTL2    -0.180000       12.0110           0
     13107 MEMB     113      OSM      H11F     HAL2     0.900000E-01   1.00800           0
     13108 MEMB     113      OSM      H11G     HAL2     0.900000E-01   1.00800           0
     13109 MEMB     113      OSM      C12F     CTL2    -0.180000       12.0110           0
     13110 MEMB     113      OSM      H12F     HAL2     0.900000E-01   1.00800           0
     13111 MEMB     113      OSM      H12G     HAL2     0.900000E-01   1.00800           0
     13112 MEMB     113      OSM      C13F     CTL2    -0.180000       12.0110           0
     13113 MEMB     113      OSM      H13F     HAL2     0.900000E-01   1.00800           0
     13114 MEMB     113      OSM      H13G     HAL2     0.900000E-01   1.00800           0
     13115 MEMB     113      OSM      C14F     CTL2    -0.180000       12.0110           0
     13116 MEMB     113      OSM      H14F     HAL2     0.900000E-01   1.00800           0
     13117 MEMB     113      OSM      H14G     HAL2     0.900000E-01   1.00800           0
     13118 MEMB     113      OSM      C15F     CTL2    -0.180000       12.0110           0
     13119 MEMB     113      OSM      H15F     HAL2     0.900000E-01   1.00800           0
     13120 MEMB     113      OSM      H15G     HAL2     0.900000E-01   1.00800           0
     13121 MEMB     113      OSM      C16F     CTL2    -0.180000       12.0110           0
     13122 MEMB     113      OSM      H16F     HAL2     0.900000E-01   1.00800           0
     13123 MEMB     113      OSM      H16G     HAL2     0.900000E-01   1.00800           0
     13124 MEMB     113      OSM      C17F     CTL2    -0.180000       12.0110           0
     13125 MEMB     113      OSM      H17F     HAL2     0.900000E-01   1.00800           0
     13126 MEMB     113      OSM      H17G     HAL2     0.900000E-01   1.00800           0
     13127 MEMB     113      OSM      C18F     CTL3    -0.270000       12.0110           0
     13128 MEMB     113      OSM      H18F     HAL3     0.900000E-01   1.00800           0
     13129 MEMB     113      OSM      H18G     HAL3     0.900000E-01   1.00800           0
     13130 MEMB     113      OSM      H18H     HAL3     0.900000E-01   1.00800           0
     13131 MEMB     114      OSM      N        NTL     -0.600000       14.0070           0
     13132 MEMB     114      OSM      C15      CTL5    -0.350000       12.0110           0
     13133 MEMB     114      OSM      H15A     HL       0.250000       1.00800           0
     13134 MEMB     114      OSM      H15B     HL       0.250000       1.00800           0
     13135 MEMB     114      OSM      H15C     HL       0.250000       1.00800           0
     13136 MEMB     114      OSM      C14      CTL5    -0.350000       12.0110           0
     13137 MEMB     114      OSM      H14A     HL       0.250000       1.00800           0
     13138 MEMB     114      OSM      H14B     HL       0.250000       1.00800           0
     13139 MEMB     114      OSM      H14C     HL       0.250000       1.00800           0
     13140 MEMB     114      OSM      C13      CTL5    -0.350000       12.0110           0
     13141 MEMB     114      OSM      H13A     HL       0.250000       1.00800           0
     13142 MEMB     114      OSM      H13B     HL       0.250000       1.00800           0
     13143 MEMB     114      OSM      H13C     HL       0.250000       1.00800           0
     13144 MEMB     114      OSM      C12      CTL2    -0.100000       12.0110           0
     13145 MEMB     114      OSM      H12A     HL       0.250000       1.00800           0
     13146 MEMB     114      OSM      H12B     HL       0.250000       1.00800           0
     13147 MEMB     114      OSM      C11      CTL2    -0.800000E-01   12.0110           0
     13148 MEMB     114      OSM      H11A     HAL2     0.900000E-01   1.00800           0
     13149 MEMB     114      OSM      H11B     HAL2     0.900000E-01   1.00800           0
     13150 MEMB     114      OSM      P        PL        1.50000       30.9740           0
     13151 MEMB     114      OSM      O13      O2L     -0.780000       15.9994           0
     13152 MEMB     114      OSM      O14      O2L     -0.780000       15.9994           0
     13153 MEMB     114      OSM      O11      OSLP    -0.570000       15.9994           0
     13154 MEMB     114      OSM      O12      OSLP    -0.570000       15.9994           0
     13155 MEMB     114      OSM      C1S      CTL2    -0.800000E-01   12.0110           0
     13156 MEMB     114      OSM      H1S      HAL2     0.900000E-01   1.00800           0
     13157 MEMB     114      OSM      H1T      HAL2     0.900000E-01   1.00800           0
     13158 MEMB     114      OSM      NF       NHL     -0.700000       14.0070           0
     13159 MEMB     114      OSM      HNF      H        0.350000       1.00800           0
     13160 MEMB     114      OSM      C2S      CTL1     0.300000       12.0110           0
     13161 MEMB     114      OSM      H2S      HAL1     0.500000E-01   1.00800           0
     13162 MEMB     114      OSM      C3S      CTO1     0.500000       12.0110           0
     13163 MEMB     114      OSM      H3S      HAL1    -0.110000       1.00800           0
     13164 MEMB     114      OSM      O3       OHL     -0.690000       15.9994           0
     13165 MEMB     114      OSM      HO3      HOL      0.300000       1.00800           0
     13166 MEMB     114      OSM      C4S      CEL3    -0.150000       12.0110           0
     13167 MEMB     114      OSM      H4S      HEL1     0.150000       1.00800           0
     13168 MEMB     114      OSM      C5S      CEL3    -0.150000       12.0110           0
     13169 MEMB     114      OSM      H5S      HEL1     0.150000       1.00800           0
     13170 MEMB     114      OSM      C6S      CTL2    -0.180000       12.0110           0
     13171 MEMB     114      OSM      H6S      HAL2     0.900000E-01   1.00800           0
     13172 MEMB     114      OSM      H6T      HAL2     0.900000E-01   1.00800           0
     13173 MEMB     114      OSM      C7S      CTL2    -0.180000       12.0110           0
     13174 MEMB     114      OSM      H7S      HAL2     0.900000E-01   1.00800           0
     13175 MEMB     114      OSM      H7T      HAL2     0.900000E-01   1.00800           0
     13176 MEMB     114      OSM      C8S      CTL2    -0.180000       12.0110           0
     13177 MEMB     114      OSM      H8S      HAL2     0.900000E-01   1.00800           0
     13178 MEMB     114      OSM      H8T      HAL2     0.900000E-01   1.00800           0
     13179 MEMB     114      OSM      C9S      CTL2    -0.180000       12.0110           0
     13180 MEMB     114      OSM      H9S      HAL2     0.900000E-01   1.00800           0
     13181 MEMB     114      OSM      H9T      HAL2     0.900000E-01   1.00800           0
     13182 MEMB     114      OSM      C10S     CTL2    -0.180000       12.0110           0
     13183 MEMB     114      OSM      H10S     HAL2     0.900000E-01   1.00800           0
     13184 MEMB     114      OSM      H10T     HAL2     0.900000E-01   1.00800           0
     13185 MEMB     114      OSM      C11S     CTL2    -0.180000       12.0110           0
     13186 MEMB     114      OSM      H11S     HAL2     0.900000E-01   1.00800           0
     13187 MEMB     114      OSM      H11T     HAL2     0.900000E-01   1.00800           0
     13188 MEMB     114      OSM      C12S     CTL2    -0.180000       12.0110           0
     13189 MEMB     114      OSM      H12S     HAL2     0.900000E-01   1.00800           0
     13190 MEMB     114      OSM      H12T     HAL2     0.900000E-01   1.00800           0
     13191 MEMB     114      OSM      C13S     CTL2    -0.180000       12.0110           0
     13192 MEMB     114      OSM      H13S     HAL2     0.900000E-01   1.00800           0
     13193 MEMB     114      OSM      H13T     HAL2     0.900000E-01   1.00800           0
     13194 MEMB     114      OSM      C14S     CTL2    -0.180000       12.0110           0
     13195 MEMB     114      OSM      H14S     HAL2     0.900000E-01   1.00800           0
     13196 MEMB     114      OSM      H14T     HAL2     0.900000E-01   1.00800           0
     13197 MEMB     114      OSM      C15S     CTL2    -0.180000       12.0110           0
     13198 MEMB     114      OSM      H15S     HAL2     0.900000E-01   1.00800           0
     13199 MEMB     114      OSM      H15T     HAL2     0.900000E-01   1.00800           0
     13200 MEMB     114      OSM      C16S     CTL2    -0.180000       12.0110           0
     13201 MEMB     114      OSM      H16S     HAL2     0.900000E-01   1.00800           0
     13202 MEMB     114      OSM      H16T     HAL2     0.900000E-01   1.00800           0
     13203 MEMB     114      OSM      C17S     CTL2    -0.180000       12.0110           0
     13204 MEMB     114      OSM      H17S     HAL2     0.900000E-01   1.00800           0
     13205 MEMB     114      OSM      H17T     HAL2     0.900000E-01   1.00800           0
     13206 MEMB     114      OSM      C18S     CTL3    -0.270000       12.0110           0
     13207 MEMB     114      OSM      H18S     HAL3     0.900000E-01   1.00800           0
     13208 MEMB     114      OSM      H18T     HAL3     0.900000E-01   1.00800           0
     13209 MEMB     114      OSM      H18U     HAL3     0.900000E-01   1.00800           0
     13210 MEMB     114      OSM      C1F      C        0.550000       12.0110           0
     13211 MEMB     114      OSM      OF       O       -0.600000       15.9994           0
     13212 MEMB     114      OSM      C2F      CTL2    -0.700000E-01   12.0110           0
     13213 MEMB     114      OSM      H2F      HAL2     0.600000E-01   1.00800           0
     13214 MEMB     114      OSM      H2G      HAL2     0.600000E-01   1.00800           0
     13215 MEMB     114      OSM      C3F      CTL2    -0.180000       12.0110           0
     13216 MEMB     114      OSM      H3F      HAL2     0.900000E-01   1.00800           0
     13217 MEMB     114      OSM      H3G      HAL2     0.900000E-01   1.00800           0
     13218 MEMB     114      OSM      C4F      CTL2    -0.180000       12.0110           0
     13219 MEMB     114      OSM      H4F      HAL2     0.900000E-01   1.00800           0
     13220 MEMB     114      OSM      H4G      HAL2     0.900000E-01   1.00800           0
     13221 MEMB     114      OSM      C5F      CTL2    -0.180000       12.0110           0
     13222 MEMB     114      OSM      H5F      HAL2     0.900000E-01   1.00800           0
     13223 MEMB     114      OSM      H5G      HAL2     0.900000E-01   1.00800           0
     13224 MEMB     114      OSM      C6F      CTL2    -0.180000       12.0110           0
     13225 MEMB     114      OSM      H6F      HAL2     0.900000E-01   1.00800           0
     13226 MEMB     114      OSM      H6G      HAL2     0.900000E-01   1.00800           0
     13227 MEMB     114      OSM      C7F      CTL2    -0.180000       12.0110           0
     13228 MEMB     114      OSM      H7F      HAL2     0.900000E-01   1.00800           0
     13229 MEMB     114      OSM      H7G      HAL2     0.900000E-01   1.00800           0
     13230 MEMB     114      OSM      C8F      CTL2    -0.180000       12.0110           0
     13231 MEMB     114      OSM      H8F      HAL2     0.900000E-01   1.00800           0
     13232 MEMB     114      OSM      H8G      HAL2     0.900000E-01   1.00800           0
     13233 MEMB     114      OSM      C9F      CEL1    -0.150000       12.0110           0
     13234 MEMB     114      OSM      H9F      HEL1     0.150000       1.00800           0
     13235 MEMB     114      OSM      C10F     CEL1    -0.150000       12.0110           0
     13236 MEMB     114      OSM      H10F     HEL1     0.150000       1.00800           0
     13237 MEMB     114      OSM      C11F     CTL2    -0.180000       12.0110           0
     13238 MEMB     114      OSM      H11F     HAL2     0.900000E-01   1.00800           0
     13239 MEMB     114      OSM      H11G     HAL2     0.900000E-01   1.00800           0
     13240 MEMB     114      OSM      C12F     CTL2    -0.180000       12.0110           0
     13241 MEMB     114      OSM      H12F     HAL2     0.900000E-01   1.00800           0
     13242 MEMB     114      OSM      H12G     HAL2     0.900000E-01   1.00800           0
     13243 MEMB     114      OSM      C13F     CTL2    -0.180000       12.0110           0
     13244 MEMB     114      OSM      H13F     HAL2     0.900000E-01   1.00800           0
     13245 MEMB     114      OSM      H13G     HAL2     0.900000E-01   1.00800           0
     13246 MEMB     114      OSM      C14F     CTL2    -0.180000       12.0110           0
     13247 MEMB     114      OSM      H14F     HAL2     0.900000E-01   1.00800           0
     13248 MEMB     114      OSM      H14G     HAL2     0.900000E-01   1.00800           0
     13249 MEMB     114      OSM      C15F     CTL2    -0.180000       12.0110           0
     13250 MEMB     114      OSM      H15F     HAL2     0.900000E-01   1.00800           0
     13251 MEMB     114      OSM      H15G     HAL2     0.900000E-01   1.00800           0
     13252 MEMB     114      OSM      C16F     CTL2    -0.180000       12.0110           0
     13253 MEMB     114      OSM      H16F     HAL2     0.900000E-01   1.00800           0
     13254 MEMB     114      OSM      H16G     HAL2     0.900000E-01   1.00800           0
     13255 MEMB     114      OSM      C17F     CTL2    -0.180000       12.0110           0
     13256 MEMB     114      OSM      H17F     HAL2     0.900000E-01   1.00800           0
     13257 MEMB     114      OSM      H17G     HAL2     0.900000E-01   1.00800           0
     13258 MEMB     114      OSM      C18F     CTL3    -0.270000       12.0110           0
     13259 MEMB     114      OSM      H18F     HAL3     0.900000E-01   1.00800           0
     13260 MEMB     114      OSM      H18G     HAL3     0.900000E-01   1.00800           0
     13261 MEMB     114      OSM      H18H     HAL3     0.900000E-01   1.00800           0
     13262 MEMB     115      OSM      N        NTL     -0.600000       14.0070           0
     13263 MEMB     115      OSM      C15      CTL5    -0.350000       12.0110           0
     13264 MEMB     115      OSM      H15A     HL       0.250000       1.00800           0
     13265 MEMB     115      OSM      H15B     HL       0.250000       1.00800           0
     13266 MEMB     115      OSM      H15C     HL       0.250000       1.00800           0
     13267 MEMB     115      OSM      C14      CTL5    -0.350000       12.0110           0
     13268 MEMB     115      OSM      H14A     HL       0.250000       1.00800           0
     13269 MEMB     115      OSM      H14B     HL       0.250000       1.00800           0
     13270 MEMB     115      OSM      H14C     HL       0.250000       1.00800           0
     13271 MEMB     115      OSM      C13      CTL5    -0.350000       12.0110           0
     13272 MEMB     115      OSM      H13A     HL       0.250000       1.00800           0
     13273 MEMB     115      OSM      H13B     HL       0.250000       1.00800           0
     13274 MEMB     115      OSM      H13C     HL       0.250000       1.00800           0
     13275 MEMB     115      OSM      C12      CTL2    -0.100000       12.0110           0
     13276 MEMB     115      OSM      H12A     HL       0.250000       1.00800           0
     13277 MEMB     115      OSM      H12B     HL       0.250000       1.00800           0
     13278 MEMB     115      OSM      C11      CTL2    -0.800000E-01   12.0110           0
     13279 MEMB     115      OSM      H11A     HAL2     0.900000E-01   1.00800           0
     13280 MEMB     115      OSM      H11B     HAL2     0.900000E-01   1.00800           0
     13281 MEMB     115      OSM      P        PL        1.50000       30.9740           0
     13282 MEMB     115      OSM      O13      O2L     -0.780000       15.9994           0
     13283 MEMB     115      OSM      O14      O2L     -0.780000       15.9994           0
     13284 MEMB     115      OSM      O11      OSLP    -0.570000       15.9994           0
     13285 MEMB     115      OSM      O12      OSLP    -0.570000       15.9994           0
     13286 MEMB     115      OSM      C1S      CTL2    -0.800000E-01   12.0110           0
     13287 MEMB     115      OSM      H1S      HAL2     0.900000E-01   1.00800           0
     13288 MEMB     115      OSM      H1T      HAL2     0.900000E-01   1.00800           0
     13289 MEMB     115      OSM      NF       NHL     -0.700000       14.0070           0
     13290 MEMB     115      OSM      HNF      H        0.350000       1.00800           0
     13291 MEMB     115      OSM      C2S      CTL1     0.300000       12.0110           0
     13292 MEMB     115      OSM      H2S      HAL1     0.500000E-01   1.00800           0
     13293 MEMB     115      OSM      C3S      CTO1     0.500000       12.0110           0
     13294 MEMB     115      OSM      H3S      HAL1    -0.110000       1.00800           0
     13295 MEMB     115      OSM      O3       OHL     -0.690000       15.9994           0
     13296 MEMB     115      OSM      HO3      HOL      0.300000       1.00800           0
     13297 MEMB     115      OSM      C4S      CEL3    -0.150000       12.0110           0
     13298 MEMB     115      OSM      H4S      HEL1     0.150000       1.00800           0
     13299 MEMB     115      OSM      C5S      CEL3    -0.150000       12.0110           0
     13300 MEMB     115      OSM      H5S      HEL1     0.150000       1.00800           0
     13301 MEMB     115      OSM      C6S      CTL2    -0.180000       12.0110           0
     13302 MEMB     115      OSM      H6S      HAL2     0.900000E-01   1.00800           0
     13303 MEMB     115      OSM      H6T      HAL2     0.900000E-01   1.00800           0
     13304 MEMB     115      OSM      C7S      CTL2    -0.180000       12.0110           0
     13305 MEMB     115      OSM      H7S      HAL2     0.900000E-01   1.00800           0
     13306 MEMB     115      OSM      H7T      HAL2     0.900000E-01   1.00800           0
     13307 MEMB     115      OSM      C8S      CTL2    -0.180000       12.0110           0
     13308 MEMB     115      OSM      H8S      HAL2     0.900000E-01   1.00800           0
     13309 MEMB     115      OSM      H8T      HAL2     0.900000E-01   1.00800           0
     13310 MEMB     115      OSM      C9S      CTL2    -0.180000       12.0110           0
     13311 MEMB     115      OSM      H9S      HAL2     0.900000E-01   1.00800           0
     13312 MEMB     115      OSM      H9T      HAL2     0.900000E-01   1.00800           0
     13313 MEMB     115      OSM      C10S     CTL2    -0.180000       12.0110           0
     13314 MEMB     115      OSM      H10S     HAL2     0.900000E-01   1.00800           0
     13315 MEMB     115      OSM      H10T     HAL2     0.900000E-01   1.00800           0
     13316 MEMB     115      OSM      C11S     CTL2    -0.180000       12.0110           0
     13317 MEMB     115      OSM      H11S     HAL2     0.900000E-01   1.00800           0
     13318 MEMB     115      OSM      H11T     HAL2     0.900000E-01   1.00800           0
     13319 MEMB     115      OSM      C12S     CTL2    -0.180000       12.0110           0
     13320 MEMB     115      OSM      H12S     HAL2     0.900000E-01   1.00800           0
     13321 MEMB     115      OSM      H12T     HAL2     0.900000E-01   1.00800           0
     13322 MEMB     115      OSM      C13S     CTL2    -0.180000       12.0110           0
     13323 MEMB     115      OSM      H13S     HAL2     0.900000E-01   1.00800           0
     13324 MEMB     115      OSM      H13T     HAL2     0.900000E-01   1.00800           0
     13325 MEMB     115      OSM      C14S     CTL2    -0.180000       12.0110           0
     13326 MEMB     115      OSM      H14S     HAL2     0.900000E-01   1.00800           0
     13327 MEMB     115      OSM      H14T     HAL2     0.900000E-01   1.00800           0
     13328 MEMB     115      OSM      C15S     CTL2    -0.180000       12.0110           0
     13329 MEMB     115      OSM      H15S     HAL2     0.900000E-01   1.00800           0
     13330 MEMB     115      OSM      H15T     HAL2     0.900000E-01   1.00800           0
     13331 MEMB     115      OSM      C16S     CTL2    -0.180000       12.0110           0
     13332 MEMB     115      OSM      H16S     HAL2     0.900000E-01   1.00800           0
     13333 MEMB     115      OSM      H16T     HAL2     0.900000E-01   1.00800           0
     13334 MEMB     115      OSM      C17S     CTL2    -0.180000       12.0110           0
     13335 MEMB     115      OSM      H17S     HAL2     0.900000E-01   1.00800           0
     13336 MEMB     115      OSM      H17T     HAL2     0.900000E-01   1.00800           0
     13337 MEMB     115      OSM      C18S     CTL3    -0.270000       12.0110           0
     13338 MEMB     115      OSM      H18S     HAL3     0.900000E-01   1.00800           0
     13339 MEMB     115      OSM      H18T     HAL3     0.900000E-01   1.00800           0
     13340 MEMB     115      OSM      H18U     HAL3     0.900000E-01   1.00800           0
     13341 MEMB     115      OSM      C1F      C        0.550000       12.0110           0
     13342 MEMB     115      OSM      OF       O       -0.600000       15.9994           0
     13343 MEMB     115      OSM      C2F      CTL2    -0.700000E-01   12.0110           0
     13344 MEMB     115      OSM      H2F      HAL2     0.600000E-01   1.00800           0
     13345 MEMB     115      OSM      H2G      HAL2     0.600000E-01   1.00800           0
     13346 MEMB     115      OSM      C3F      CTL2    -0.180000       12.0110           0
     13347 MEMB     115      OSM      H3F      HAL2     0.900000E-01   1.00800           0
     13348 MEMB     115      OSM      H3G      HAL2     0.900000E-01   1.00800           0
     13349 MEMB     115      OSM      C4F      CTL2    -0.180000       12.0110           0
     13350 MEMB     115      OSM      H4F      HAL2     0.900000E-01   1.00800           0
     13351 MEMB     115      OSM      H4G      HAL2     0.900000E-01   1.00800           0
     13352 MEMB     115      OSM      C5F      CTL2    -0.180000       12.0110           0
     13353 MEMB     115      OSM      H5F      HAL2     0.900000E-01   1.00800           0
     13354 MEMB     115      OSM      H5G      HAL2     0.900000E-01   1.00800           0
     13355 MEMB     115      OSM      C6F      CTL2    -0.180000       12.0110           0
     13356 MEMB     115      OSM      H6F      HAL2     0.900000E-01   1.00800           0
     13357 MEMB     115      OSM      H6G      HAL2     0.900000E-01   1.00800           0
     13358 MEMB     115      OSM      C7F      CTL2    -0.180000       12.0110           0
     13359 MEMB     115      OSM      H7F      HAL2     0.900000E-01   1.00800           0
     13360 MEMB     115      OSM      H7G      HAL2     0.900000E-01   1.00800           0
     13361 MEMB     115      OSM      C8F      CTL2    -0.180000       12.0110           0
     13362 MEMB     115      OSM      H8F      HAL2     0.900000E-01   1.00800           0
     13363 MEMB     115      OSM      H8G      HAL2     0.900000E-01   1.00800           0
     13364 MEMB     115      OSM      C9F      CEL1    -0.150000       12.0110           0
     13365 MEMB     115      OSM      H9F      HEL1     0.150000       1.00800           0
     13366 MEMB     115      OSM      C10F     CEL1    -0.150000       12.0110           0
     13367 MEMB     115      OSM      H10F     HEL1     0.150000       1.00800           0
     13368 MEMB     115      OSM      C11F     CTL2    -0.180000       12.0110           0
     13369 MEMB     115      OSM      H11F     HAL2     0.900000E-01   1.00800           0
     13370 MEMB     115      OSM      H11G     HAL2     0.900000E-01   1.00800           0
     13371 MEMB     115      OSM      C12F     CTL2    -0.180000       12.0110           0
     13372 MEMB     115      OSM      H12F     HAL2     0.900000E-01   1.00800           0
     13373 MEMB     115      OSM      H12G     HAL2     0.900000E-01   1.00800           0
     13374 MEMB     115      OSM      C13F     CTL2    -0.180000       12.0110           0
     13375 MEMB     115      OSM      H13F     HAL2     0.900000E-01   1.00800           0
     13376 MEMB     115      OSM      H13G     HAL2     0.900000E-01   1.00800           0
     13377 MEMB     115      OSM      C14F     CTL2    -0.180000       12.0110           0
     13378 MEMB     115      OSM      H14F     HAL2     0.900000E-01   1.00800           0
     13379 MEMB     115      OSM      H14G     HAL2     0.900000E-01   1.00800           0
     13380 MEMB     115      OSM      C15F     CTL2    -0.180000       12.0110           0
     13381 MEMB     115      OSM      H15F     HAL2     0.900000E-01   1.00800           0
     13382 MEMB     115      OSM      H15G     HAL2     0.900000E-01   1.00800           0
     13383 MEMB     115      OSM      C16F     CTL2    -0.180000       12.0110           0
     13384 MEMB     115      OSM      H16F     HAL2     0.900000E-01   1.00800           0
     13385 MEMB     115      OSM      H16G     HAL2     0.900000E-01   1.00800           0
     13386 MEMB     115      OSM      C17F     CTL2    -0.180000       12.0110           0
     13387 MEMB     115      OSM      H17F     HAL2     0.900000E-01   1.00800           0
     13388 MEMB     115      OSM      H17G     HAL2     0.900000E-01   1.00800           0
     13389 MEMB     115      OSM      C18F     CTL3    -0.270000       12.0110           0
     13390 MEMB     115      OSM      H18F     HAL3     0.900000E-01   1.00800           0
     13391 MEMB     115      OSM      H18G     HAL3     0.900000E-01   1.00800           0
     13392 MEMB     115      OSM      H18H     HAL3     0.900000E-01   1.00800           0
     13393 MEMB     116      OSM      N        NTL     -0.600000       14.0070           0
     13394 MEMB     116      OSM      C15      CTL5    -0.350000       12.0110           0
     13395 MEMB     116      OSM      H15A     HL       0.250000       1.00800           0
     13396 MEMB     116      OSM      H15B     HL       0.250000       1.00800           0
     13397 MEMB     116      OSM      H15C     HL       0.250000       1.00800           0
     13398 MEMB     116      OSM      C14      CTL5    -0.350000       12.0110           0
     13399 MEMB     116      OSM      H14A     HL       0.250000       1.00800           0
     13400 MEMB     116      OSM      H14B     HL       0.250000       1.00800           0
     13401 MEMB     116      OSM      H14C     HL       0.250000       1.00800           0
     13402 MEMB     116      OSM      C13      CTL5    -0.350000       12.0110           0
     13403 MEMB     116      OSM      H13A     HL       0.250000       1.00800           0
     13404 MEMB     116      OSM      H13B     HL       0.250000       1.00800           0
     13405 MEMB     116      OSM      H13C     HL       0.250000       1.00800           0
     13406 MEMB     116      OSM      C12      CTL2    -0.100000       12.0110           0
     13407 MEMB     116      OSM      H12A     HL       0.250000       1.00800           0
     13408 MEMB     116      OSM      H12B     HL       0.250000       1.00800           0
     13409 MEMB     116      OSM      C11      CTL2    -0.800000E-01   12.0110           0
     13410 MEMB     116      OSM      H11A     HAL2     0.900000E-01   1.00800           0
     13411 MEMB     116      OSM      H11B     HAL2     0.900000E-01   1.00800           0
     13412 MEMB     116      OSM      P        PL        1.50000       30.9740           0
     13413 MEMB     116      OSM      O13      O2L     -0.780000       15.9994           0
     13414 MEMB     116      OSM      O14      O2L     -0.780000       15.9994           0
     13415 MEMB     116      OSM      O11      OSLP    -0.570000       15.9994           0
     13416 MEMB     116      OSM      O12      OSLP    -0.570000       15.9994           0
     13417 MEMB     116      OSM      C1S      CTL2    -0.800000E-01   12.0110           0
     13418 MEMB     116      OSM      H1S      HAL2     0.900000E-01   1.00800           0
     13419 MEMB     116      OSM      H1T      HAL2     0.900000E-01   1.00800           0
     13420 MEMB     116      OSM      NF       NHL     -0.700000       14.0070           0
     13421 MEMB     116      OSM      HNF      H        0.350000       1.00800           0
     13422 MEMB     116      OSM      C2S      CTL1     0.300000       12.0110           0
     13423 MEMB     116      OSM      H2S      HAL1     0.500000E-01   1.00800           0
     13424 MEMB     116      OSM      C3S      CTO1     0.500000       12.0110           0
     13425 MEMB     116      OSM      H3S      HAL1    -0.110000       1.00800           0
     13426 MEMB     116      OSM      O3       OHL     -0.690000       15.9994           0
     13427 MEMB     116      OSM      HO3      HOL      0.300000       1.00800           0
     13428 MEMB     116      OSM      C4S      CEL3    -0.150000       12.0110           0
     13429 MEMB     116      OSM      H4S      HEL1     0.150000       1.00800           0
     13430 MEMB     116      OSM      C5S      CEL3    -0.150000       12.0110           0
     13431 MEMB     116      OSM      H5S      HEL1     0.150000       1.00800           0
     13432 MEMB     116      OSM      C6S      CTL2    -0.180000       12.0110           0
     13433 MEMB     116      OSM      H6S      HAL2     0.900000E-01   1.00800           0
     13434 MEMB     116      OSM      H6T      HAL2     0.900000E-01   1.00800           0
     13435 MEMB     116      OSM      C7S      CTL2    -0.180000       12.0110           0
     13436 MEMB     116      OSM      H7S      HAL2     0.900000E-01   1.00800           0
     13437 MEMB     116      OSM      H7T      HAL2     0.900000E-01   1.00800           0
     13438 MEMB     116      OSM      C8S      CTL2    -0.180000       12.0110           0
     13439 MEMB     116      OSM      H8S      HAL2     0.900000E-01   1.00800           0
     13440 MEMB     116      OSM      H8T      HAL2     0.900000E-01   1.00800           0
     13441 MEMB     116      OSM      C9S      CTL2    -0.180000       12.0110           0
     13442 MEMB     116      OSM      H9S      HAL2     0.900000E-01   1.00800           0
     13443 MEMB     116      OSM      H9T      HAL2     0.900000E-01   1.00800           0
     13444 MEMB     116      OSM      C10S     CTL2    -0.180000       12.0110           0
     13445 MEMB     116      OSM      H10S     HAL2     0.900000E-01   1.00800           0
     13446 MEMB     116      OSM      H10T     HAL2     0.900000E-01   1.00800           0
     13447 MEMB     116      OSM      C11S     CTL2    -0.180000       12.0110           0
     13448 MEMB     116      OSM      H11S     HAL2     0.900000E-01   1.00800           0
     13449 MEMB     116      OSM      H11T     HAL2     0.900000E-01   1.00800           0
     13450 MEMB     116      OSM      C12S     CTL2    -0.180000       12.0110           0
     13451 MEMB     116      OSM      H12S     HAL2     0.900000E-01   1.00800           0
     13452 MEMB     116      OSM      H12T     HAL2     0.900000E-01   1.00800           0
     13453 MEMB     116      OSM      C13S     CTL2    -0.180000       12.0110           0
     13454 MEMB     116      OSM      H13S     HAL2     0.900000E-01   1.00800           0
     13455 MEMB     116      OSM      H13T     HAL2     0.900000E-01   1.00800           0
     13456 MEMB     116      OSM      C14S     CTL2    -0.180000       12.0110           0
     13457 MEMB     116      OSM      H14S     HAL2     0.900000E-01   1.00800           0
     13458 MEMB     116      OSM      H14T     HAL2     0.900000E-01   1.00800           0
     13459 MEMB     116      OSM      C15S     CTL2    -0.180000       12.0110           0
     13460 MEMB     116      OSM      H15S     HAL2     0.900000E-01   1.00800           0
     13461 MEMB     116      OSM      H15T     HAL2     0.900000E-01   1.00800           0
     13462 MEMB     116      OSM      C16S     CTL2    -0.180000       12.0110           0
     13463 MEMB     116      OSM      H16S     HAL2     0.900000E-01   1.00800           0
     13464 MEMB     116      OSM      H16T     HAL2     0.900000E-01   1.00800           0
     13465 MEMB     116      OSM      C17S     CTL2    -0.180000       12.0110           0
     13466 MEMB     116      OSM      H17S     HAL2     0.900000E-01   1.00800           0
     13467 MEMB     116      OSM      H17T     HAL2     0.900000E-01   1.00800           0
     13468 MEMB     116      OSM      C18S     CTL3    -0.270000       12.0110           0
     13469 MEMB     116      OSM      H18S     HAL3     0.900000E-01   1.00800           0
     13470 MEMB     116      OSM      H18T     HAL3     0.900000E-01   1.00800           0
     13471 MEMB     116      OSM      H18U     HAL3     0.900000E-01   1.00800           0
     13472 MEMB     116      OSM      C1F      C        0.550000       12.0110           0
     13473 MEMB     116      OSM      OF       O       -0.600000       15.9994           0
     13474 MEMB     116      OSM      C2F      CTL2    -0.700000E-01   12.0110           0
     13475 MEMB     116      OSM      H2F      HAL2     0.600000E-01   1.00800           0
     13476 MEMB     116      OSM      H2G      HAL2     0.600000E-01   1.00800           0
     13477 MEMB     116      OSM      C3F      CTL2    -0.180000       12.0110           0
     13478 MEMB     116      OSM      H3F      HAL2     0.900000E-01   1.00800           0
     13479 MEMB     116      OSM      H3G      HAL2     0.900000E-01   1.00800           0
     13480 MEMB     116      OSM      C4F      CTL2    -0.180000       12.0110           0
     13481 MEMB     116      OSM      H4F      HAL2     0.900000E-01   1.00800           0
     13482 MEMB     116      OSM      H4G      HAL2     0.900000E-01   1.00800           0
     13483 MEMB     116      OSM      C5F      CTL2    -0.180000       12.0110           0
     13484 MEMB     116      OSM      H5F      HAL2     0.900000E-01   1.00800           0
     13485 MEMB     116      OSM      H5G      HAL2     0.900000E-01   1.00800           0
     13486 MEMB     116      OSM      C6F      CTL2    -0.180000       12.0110           0
     13487 MEMB     116      OSM      H6F      HAL2     0.900000E-01   1.00800           0
     13488 MEMB     116      OSM      H6G      HAL2     0.900000E-01   1.00800           0
     13489 MEMB     116      OSM      C7F      CTL2    -0.180000       12.0110           0
     13490 MEMB     116      OSM      H7F      HAL2     0.900000E-01   1.00800           0
     13491 MEMB     116      OSM      H7G      HAL2     0.900000E-01   1.00800           0
     13492 MEMB     116      OSM      C8F      CTL2    -0.180000       12.0110           0
     13493 MEMB     116      OSM      H8F      HAL2     0.900000E-01   1.00800           0
     13494 MEMB     116      OSM      H8G      HAL2     0.900000E-01   1.00800           0
     13495 MEMB     116      OSM      C9F      CEL1    -0.150000       12.0110           0
     13496 MEMB     116      OSM      H9F      HEL1     0.150000       1.00800           0
     13497 MEMB     116      OSM      C10F     CEL1    -0.150000       12.0110           0
     13498 MEMB     116      OSM      H10F     HEL1     0.150000       1.00800           0
     13499 MEMB     116      OSM      C11F     CTL2    -0.180000       12.0110           0
     13500 MEMB     116      OSM      H11F     HAL2     0.900000E-01   1.00800           0
     13501 MEMB     116      OSM      H11G     HAL2     0.900000E-01   1.00800           0
     13502 MEMB     116      OSM      C12F     CTL2    -0.180000       12.0110           0
     13503 MEMB     116      OSM      H12F     HAL2     0.900000E-01   1.00800           0
     13504 MEMB     116      OSM      H12G     HAL2     0.900000E-01   1.00800           0
     13505 MEMB     116      OSM      C13F     CTL2    -0.180000       12.0110           0
     13506 MEMB     116      OSM      H13F     HAL2     0.900000E-01   1.00800           0
     13507 MEMB     116      OSM      H13G     HAL2     0.900000E-01   1.00800           0
     13508 MEMB     116      OSM      C14F     CTL2    -0.180000       12.0110           0
     13509 MEMB     116      OSM      H14F     HAL2     0.900000E-01   1.00800           0
     13510 MEMB     116      OSM      H14G     HAL2     0.900000E-01   1.00800           0
     13511 MEMB     116      OSM      C15F     CTL2    -0.180000       12.0110           0
     13512 MEMB     116      OSM      H15F     HAL2     0.900000E-01   1.00800           0
     13513 MEMB     116      OSM      H15G     HAL2     0.900000E-01   1.00800           0
     13514 MEMB     116      OSM      C16F     CTL2    -0.180000       12.0110           0
     13515 MEMB     116      OSM      H16F     HAL2     0.900000E-01   1.00800           0
     13516 MEMB     116      OSM      H16G     HAL2     0.900000E-01   1.00800           0
     13517 MEMB     116      OSM      C17F     CTL2    -0.180000       12.0110           0
     13518 MEMB     116      OSM      H17F     HAL2     0.900000E-01   1.00800           0
     13519 MEMB     116      OSM      H17G     HAL2     0.900000E-01   1.00800           0
     13520 MEMB     116      OSM      C18F     CTL3    -0.270000       12.0110           0
     13521 MEMB     116      OSM      H18F     HAL3     0.900000E-01   1.00800           0
     13522 MEMB     116      OSM      H18G     HAL3     0.900000E-01   1.00800           0
     13523 MEMB     116      OSM      H18H     HAL3     0.900000E-01   1.00800           0
     13524 MEMB     117      OSM      N        NTL     -0.600000       14.0070           0
     13525 MEMB     117      OSM      C15      CTL5    -0.350000       12.0110           0
     13526 MEMB     117      OSM      H15A     HL       0.250000       1.00800           0
     13527 MEMB     117      OSM      H15B     HL       0.250000       1.00800           0
     13528 MEMB     117      OSM      H15C     HL       0.250000       1.00800           0
     13529 MEMB     117      OSM      C14      CTL5    -0.350000       12.0110           0
     13530 MEMB     117      OSM      H14A     HL       0.250000       1.00800           0
     13531 MEMB     117      OSM      H14B     HL       0.250000       1.00800           0
     13532 MEMB     117      OSM      H14C     HL       0.250000       1.00800           0
     13533 MEMB     117      OSM      C13      CTL5    -0.350000       12.0110           0
     13534 MEMB     117      OSM      H13A     HL       0.250000       1.00800           0
     13535 MEMB     117      OSM      H13B     HL       0.250000       1.00800           0
     13536 MEMB     117      OSM      H13C     HL       0.250000       1.00800           0
     13537 MEMB     117      OSM      C12      CTL2    -0.100000       12.0110           0
     13538 MEMB     117      OSM      H12A     HL       0.250000       1.00800           0
     13539 MEMB     117      OSM      H12B     HL       0.250000       1.00800           0
     13540 MEMB     117      OSM      C11      CTL2    -0.800000E-01   12.0110           0
     13541 MEMB     117      OSM      H11A     HAL2     0.900000E-01   1.00800           0
     13542 MEMB     117      OSM      H11B     HAL2     0.900000E-01   1.00800           0
     13543 MEMB     117      OSM      P        PL        1.50000       30.9740           0
     13544 MEMB     117      OSM      O13      O2L     -0.780000       15.9994           0
     13545 MEMB     117      OSM      O14      O2L     -0.780000       15.9994           0
     13546 MEMB     117      OSM      O11      OSLP    -0.570000       15.9994           0
     13547 MEMB     117      OSM      O12      OSLP    -0.570000       15.9994           0
     13548 MEMB     117      OSM      C1S      CTL2    -0.800000E-01   12.0110           0
     13549 MEMB     117      OSM      H1S      HAL2     0.900000E-01   1.00800           0
     13550 MEMB     117      OSM      H1T      HAL2     0.900000E-01   1.00800           0
     13551 MEMB     117      OSM      NF       NHL     -0.700000       14.0070           0
     13552 MEMB     117      OSM      HNF      H        0.350000       1.00800           0
     13553 MEMB     117      OSM      C2S      CTL1     0.300000       12.0110           0
     13554 MEMB     117      OSM      H2S      HAL1     0.500000E-01   1.00800           0
     13555 MEMB     117      OSM      C3S      CTO1     0.500000       12.0110           0
     13556 MEMB     117      OSM      H3S      HAL1    -0.110000       1.00800           0
     13557 MEMB     117      OSM      O3       OHL     -0.690000       15.9994           0
     13558 MEMB     117      OSM      HO3      HOL      0.300000       1.00800           0
     13559 MEMB     117      OSM      C4S      CEL3    -0.150000       12.0110           0
     13560 MEMB     117      OSM      H4S      HEL1     0.150000       1.00800           0
     13561 MEMB     117      OSM      C5S      CEL3    -0.150000       12.0110           0
     13562 MEMB     117      OSM      H5S      HEL1     0.150000       1.00800           0
     13563 MEMB     117      OSM      C6S      CTL2    -0.180000       12.0110           0
     13564 MEMB     117      OSM      H6S      HAL2     0.900000E-01   1.00800           0
     13565 MEMB     117      OSM      H6T      HAL2     0.900000E-01   1.00800           0
     13566 MEMB     117      OSM      C7S      CTL2    -0.180000       12.0110           0
     13567 MEMB     117      OSM      H7S      HAL2     0.900000E-01   1.00800           0
     13568 MEMB     117      OSM      H7T      HAL2     0.900000E-01   1.00800           0
     13569 MEMB     117      OSM      C8S      CTL2    -0.180000       12.0110           0
     13570 MEMB     117      OSM      H8S      HAL2     0.900000E-01   1.00800           0
     13571 MEMB     117      OSM      H8T      HAL2     0.900000E-01   1.00800           0
     13572 MEMB     117      OSM      C9S      CTL2    -0.180000       12.0110           0
     13573 MEMB     117      OSM      H9S      HAL2     0.900000E-01   1.00800           0
     13574 MEMB     117      OSM      H9T      HAL2     0.900000E-01   1.00800           0
     13575 MEMB     117      OSM      C10S     CTL2    -0.180000       12.0110           0
     13576 MEMB     117      OSM      H10S     HAL2     0.900000E-01   1.00800           0
     13577 MEMB     117      OSM      H10T     HAL2     0.900000E-01   1.00800           0
     13578 MEMB     117      OSM      C11S     CTL2    -0.180000       12.0110           0
     13579 MEMB     117      OSM      H11S     HAL2     0.900000E-01   1.00800           0
     13580 MEMB     117      OSM      H11T     HAL2     0.900000E-01   1.00800           0
     13581 MEMB     117      OSM      C12S     CTL2    -0.180000       12.0110           0
     13582 MEMB     117      OSM      H12S     HAL2     0.900000E-01   1.00800           0
     13583 MEMB     117      OSM      H12T     HAL2     0.900000E-01   1.00800           0
     13584 MEMB     117      OSM      C13S     CTL2    -0.180000       12.0110           0
     13585 MEMB     117      OSM      H13S     HAL2     0.900000E-01   1.00800           0
     13586 MEMB     117      OSM      H13T     HAL2     0.900000E-01   1.00800           0
     13587 MEMB     117      OSM      C14S     CTL2    -0.180000       12.0110           0
     13588 MEMB     117      OSM      H14S     HAL2     0.900000E-01   1.00800           0
     13589 MEMB     117      OSM      H14T     HAL2     0.900000E-01   1.00800           0
     13590 MEMB     117      OSM      C15S     CTL2    -0.180000       12.0110           0
     13591 MEMB     117      OSM      H15S     HAL2     0.900000E-01   1.00800           0
     13592 MEMB     117      OSM      H15T     HAL2     0.900000E-01   1.00800           0
     13593 MEMB     117      OSM      C16S     CTL2    -0.180000       12.0110           0
     13594 MEMB     117      OSM      H16S     HAL2     0.900000E-01   1.00800           0
     13595 MEMB     117      OSM      H16T     HAL2     0.900000E-01   1.00800           0
     13596 MEMB     117      OSM      C17S     CTL2    -0.180000       12.0110           0
     13597 MEMB     117      OSM      H17S     HAL2     0.900000E-01   1.00800           0
     13598 MEMB     117      OSM      H17T     HAL2     0.900000E-01   1.00800           0
     13599 MEMB     117      OSM      C18S     CTL3    -0.270000       12.0110           0
     13600 MEMB     117      OSM      H18S     HAL3     0.900000E-01   1.00800           0
     13601 MEMB     117      OSM      H18T     HAL3     0.900000E-01   1.00800           0
     13602 MEMB     117      OSM      H18U     HAL3     0.900000E-01   1.00800           0
     13603 MEMB     117      OSM      C1F      C        0.550000       12.0110           0
     13604 MEMB     117      OSM      OF       O       -0.600000       15.9994           0
     13605 MEMB     117      OSM      C2F      CTL2    -0.700000E-01   12.0110           0
     13606 MEMB     117      OSM      H2F      HAL2     0.600000E-01   1.00800           0
     13607 MEMB     117      OSM      H2G      HAL2     0.600000E-01   1.00800           0
     13608 MEMB     117      OSM      C3F      CTL2    -0.180000       12.0110           0
     13609 MEMB     117      OSM      H3F      HAL2     0.900000E-01   1.00800           0
     13610 MEMB     117      OSM      H3G      HAL2     0.900000E-01   1.00800           0
     13611 MEMB     117      OSM      C4F      CTL2    -0.180000       12.0110           0
     13612 MEMB     117      OSM      H4F      HAL2     0.900000E-01   1.00800           0
     13613 MEMB     117      OSM      H4G      HAL2     0.900000E-01   1.00800           0
     13614 MEMB     117      OSM      C5F      CTL2    -0.180000       12.0110           0
     13615 MEMB     117      OSM      H5F      HAL2     0.900000E-01   1.00800           0
     13616 MEMB     117      OSM      H5G      HAL2     0.900000E-01   1.00800           0
     13617 MEMB     117      OSM      C6F      CTL2    -0.180000       12.0110           0
     13618 MEMB     117      OSM      H6F      HAL2     0.900000E-01   1.00800           0
     13619 MEMB     117      OSM      H6G      HAL2     0.900000E-01   1.00800           0
     13620 MEMB     117      OSM      C7F      CTL2    -0.180000       12.0110           0
     13621 MEMB     117      OSM      H7F      HAL2     0.900000E-01   1.00800           0
     13622 MEMB     117      OSM      H7G      HAL2     0.900000E-01   1.00800           0
     13623 MEMB     117      OSM      C8F      CTL2    -0.180000       12.0110           0
     13624 MEMB     117      OSM      H8F      HAL2     0.900000E-01   1.00800           0
     13625 MEMB     117      OSM      H8G      HAL2     0.900000E-01   1.00800           0
     13626 MEMB     117      OSM      C9F      CEL1    -0.150000       12.0110           0
     13627 MEMB     117      OSM      H9F      HEL1     0.150000       1.00800           0
     13628 MEMB     117      OSM      C10F     CEL1    -0.150000       12.0110           0
     13629 MEMB     117      OSM      H10F     HEL1     0.150000       1.00800           0
     13630 MEMB     117      OSM      C11F     CTL2    -0.180000       12.0110           0
     13631 MEMB     117      OSM      H11F     HAL2     0.900000E-01   1.00800           0
     13632 MEMB     117      OSM      H11G     HAL2     0.900000E-01   1.00800           0
     13633 MEMB     117      OSM      C12F     CTL2    -0.180000       12.0110           0
     13634 MEMB     117      OSM      H12F     HAL2     0.900000E-01   1.00800           0
     13635 MEMB     117      OSM      H12G     HAL2     0.900000E-01   1.00800           0
     13636 MEMB     117      OSM      C13F     CTL2    -0.180000       12.0110           0
     13637 MEMB     117      OSM      H13F     HAL2     0.900000E-01   1.00800           0
     13638 MEMB     117      OSM      H13G     HAL2     0.900000E-01   1.00800           0
     13639 MEMB     117      OSM      C14F     CTL2    -0.180000       12.0110           0
     13640 MEMB     117      OSM      H14F     HAL2     0.900000E-01   1.00800           0
     13641 MEMB     117      OSM      H14G     HAL2     0.900000E-01   1.00800           0
     13642 MEMB     117      OSM      C15F     CTL2    -0.180000       12.0110           0
     13643 MEMB     117      OSM      H15F     HAL2     0.900000E-01   1.00800           0
     13644 MEMB     117      OSM      H15G     HAL2     0.900000E-01   1.00800           0
     13645 MEMB     117      OSM      C16F     CTL2    -0.180000       12.0110           0
     13646 MEMB     117      OSM      H16F     HAL2     0.900000E-01   1.00800           0
     13647 MEMB     117      OSM      H16G     HAL2     0.900000E-01   1.00800           0
     13648 MEMB     117      OSM      C17F     CTL2    -0.180000       12.0110           0
     13649 MEMB     117      OSM      H17F     HAL2     0.900000E-01   1.00800           0
     13650 MEMB     117      OSM      H17G     HAL2     0.900000E-01   1.00800           0
     13651 MEMB     117      OSM      C18F     CTL3    -0.270000       12.0110           0
     13652 MEMB     117      OSM      H18F     HAL3     0.900000E-01   1.00800           0
     13653 MEMB     117      OSM      H18G     HAL3     0.900000E-01   1.00800           0
     13654 MEMB     117      OSM      H18H     HAL3     0.900000E-01   1.00800           0
     13655 MEMB     118      SAPC     N        NTL     -0.600000       14.0070           0
     13656 MEMB     118      SAPC     C12      CTL2    -0.100000       12.0110           0
     13657 MEMB     118      SAPC     H12A     HL       0.250000       1.00800           0
     13658 MEMB     118      SAPC     H12B     HL       0.250000       1.00800           0
     13659 MEMB     118      SAPC     C13      CTL5    -0.350000       12.0110           0
     13660 MEMB     118      SAPC     H13A     HL       0.250000       1.00800           0
     13661 MEMB     118      SAPC     H13B     HL       0.250000       1.00800           0
     13662 MEMB     118      SAPC     H13C     HL       0.250000       1.00800           0
     13663 MEMB     118      SAPC     C14      CTL5    -0.350000       12.0110           0
     13664 MEMB     118      SAPC     H14A     HL       0.250000       1.00800           0
     13665 MEMB     118      SAPC     H14B     HL       0.250000       1.00800           0
     13666 MEMB     118      SAPC     H14C     HL       0.250000       1.00800           0
     13667 MEMB     118      SAPC     C15      CTL5    -0.350000       12.0110           0
     13668 MEMB     118      SAPC     H15A     HL       0.250000       1.00800           0
     13669 MEMB     118      SAPC     H15B     HL       0.250000       1.00800           0
     13670 MEMB     118      SAPC     H15C     HL       0.250000       1.00800           0
     13671 MEMB     118      SAPC     C11      CTL2    -0.800000E-01   12.0110           0
     13672 MEMB     118      SAPC     H11A     HAL2     0.900000E-01   1.00800           0
     13673 MEMB     118      SAPC     H11B     HAL2     0.900000E-01   1.00800           0
     13674 MEMB     118      SAPC     P        PL        1.50000       30.9740           0
     13675 MEMB     118      SAPC     O13      O2L     -0.780000       15.9994           0
     13676 MEMB     118      SAPC     O14      O2L     -0.780000       15.9994           0
     13677 MEMB     118      SAPC     O12      OSLP    -0.570000       15.9994           0
     13678 MEMB     118      SAPC     O11      OSLP    -0.570000       15.9994           0
     13679 MEMB     118      SAPC     C1       CTL2    -0.800000E-01   12.0110           0
     13680 MEMB     118      SAPC     HA       HAL2     0.900000E-01   1.00800           0
     13681 MEMB     118      SAPC     HB       HAL2     0.900000E-01   1.00800           0
     13682 MEMB     118      SAPC     C2       CTL1     0.170000       12.0110           0
     13683 MEMB     118      SAPC     HS       HAL1     0.900000E-01   1.00800           0
     13684 MEMB     118      SAPC     O21      OSL     -0.490000       15.9994           0
     13685 MEMB     118      SAPC     C21      CL       0.900000       12.0110           0
     13686 MEMB     118      SAPC     O22      OBL     -0.630000       15.9994           0
     13687 MEMB     118      SAPC     C22      CTL2    -0.220000       12.0110           0
     13688 MEMB     118      SAPC     H2R      HAL2     0.900000E-01   1.00800           0
     13689 MEMB     118      SAPC     H2S      HAL2     0.900000E-01   1.00800           0
     13690 MEMB     118      SAPC     C3       CTL2     0.800000E-01   12.0110           0
     13691 MEMB     118      SAPC     HX       HAL2     0.900000E-01   1.00800           0
     13692 MEMB     118      SAPC     HY       HAL2     0.900000E-01   1.00800           0
     13693 MEMB     118      SAPC     O31      OSL     -0.490000       15.9994           0
     13694 MEMB     118      SAPC     C31      CL       0.900000       12.0110           0
     13695 MEMB     118      SAPC     O32      OBL     -0.630000       15.9994           0
     13696 MEMB     118      SAPC     C32      CTL2    -0.220000       12.0110           0
     13697 MEMB     118      SAPC     H2X      HAL2     0.900000E-01   1.00800           0
     13698 MEMB     118      SAPC     H2Y      HAL2     0.900000E-01   1.00800           0
     13699 MEMB     118      SAPC     C23      CTL2    -0.180000       12.0110           0
     13700 MEMB     118      SAPC     H3R      HAL2     0.900000E-01   1.00800           0
     13701 MEMB     118      SAPC     H3S      HAL2     0.900000E-01   1.00800           0
     13702 MEMB     118      SAPC     C24      CTL2    -0.180000       12.0110           0
     13703 MEMB     118      SAPC     H4R      HAL2     0.900000E-01   1.00800           0
     13704 MEMB     118      SAPC     H4S      HAL2     0.900000E-01   1.00800           0
     13705 MEMB     118      SAPC     C25      CEL1    -0.150000       12.0110           0
     13706 MEMB     118      SAPC     H5R      HEL1     0.150000       1.00800           0
     13707 MEMB     118      SAPC     C26      CEL1    -0.150000       12.0110           0
     13708 MEMB     118      SAPC     H6R      HEL1     0.150000       1.00800           0
     13709 MEMB     118      SAPC     C27      CTL2    -0.180000       12.0110           0
     13710 MEMB     118      SAPC     H7R      HAL2     0.900000E-01   1.00800           0
     13711 MEMB     118      SAPC     H7S      HAL2     0.900000E-01   1.00800           0
     13712 MEMB     118      SAPC     C28      CEL1    -0.150000       12.0110           0
     13713 MEMB     118      SAPC     H8R      HEL1     0.150000       1.00800           0
     13714 MEMB     118      SAPC     C29      CEL1    -0.150000       12.0110           0
     13715 MEMB     118      SAPC     H9R      HEL1     0.150000       1.00800           0
     13716 MEMB     118      SAPC     C210     CTL2    -0.180000       12.0110           0
     13717 MEMB     118      SAPC     H10R     HAL2     0.900000E-01   1.00800           0
     13718 MEMB     118      SAPC     H10S     HAL2     0.900000E-01   1.00800           0
     13719 MEMB     118      SAPC     C211     CEL1    -0.150000       12.0110           0
     13720 MEMB     118      SAPC     H11R     HEL1     0.150000       1.00800           0
     13721 MEMB     118      SAPC     C212     CEL1    -0.150000       12.0110           0
     13722 MEMB     118      SAPC     H12R     HEL1     0.150000       1.00800           0
     13723 MEMB     118      SAPC     C213     CTL2    -0.180000       12.0110           0
     13724 MEMB     118      SAPC     H13R     HAL2     0.900000E-01   1.00800           0
     13725 MEMB     118      SAPC     H13S     HAL2     0.900000E-01   1.00800           0
     13726 MEMB     118      SAPC     C214     CEL1    -0.150000       12.0110           0
     13727 MEMB     118      SAPC     H14R     HEL1     0.150000       1.00800           0
     13728 MEMB     118      SAPC     C215     CEL1    -0.150000       12.0110           0
     13729 MEMB     118      SAPC     H15R     HEL1     0.150000       1.00800           0
     13730 MEMB     118      SAPC     C216     CTL2    -0.180000       12.0110           0
     13731 MEMB     118      SAPC     H16R     HAL2     0.900000E-01   1.00800           0
     13732 MEMB     118      SAPC     H16S     HAL2     0.900000E-01   1.00800           0
     13733 MEMB     118      SAPC     C217     CTL2    -0.180000       12.0110           0
     13734 MEMB     118      SAPC     H17R     HAL2     0.900000E-01   1.00800           0
     13735 MEMB     118      SAPC     H17S     HAL2     0.900000E-01   1.00800           0
     13736 MEMB     118      SAPC     C218     CTL2    -0.270000       12.0110           0
     13737 MEMB     118      SAPC     H18R     HAL2     0.900000E-01   1.00800           0
     13738 MEMB     118      SAPC     H18S     HAL2     0.900000E-01   1.00800           0
     13739 MEMB     118      SAPC     C219     CTL2    -0.180000       12.0110           0
     13740 MEMB     118      SAPC     H19R     HAL2     0.900000E-01   1.00800           0
     13741 MEMB     118      SAPC     H19S     HAL2     0.900000E-01   1.00800           0
     13742 MEMB     118      SAPC     C220     CTL3    -0.180000       12.0110           0
     13743 MEMB     118      SAPC     H20R     HAL3     0.900000E-01   1.00800           0
     13744 MEMB     118      SAPC     H20S     HAL3     0.900000E-01   1.00800           0
     13745 MEMB     118      SAPC     H20T     HAL3     0.900000E-01   1.00800           0
     13746 MEMB     118      SAPC     C33      CTL2    -0.180000       12.0110           0
     13747 MEMB     118      SAPC     H3X      HAL2     0.900000E-01   1.00800           0
     13748 MEMB     118      SAPC     H3Y      HAL2     0.900000E-01   1.00800           0
     13749 MEMB     118      SAPC     C34      CTL2    -0.180000       12.0110           0
     13750 MEMB     118      SAPC     H4X      HAL2     0.900000E-01   1.00800           0
     13751 MEMB     118      SAPC     H4Y      HAL2     0.900000E-01   1.00800           0
     13752 MEMB     118      SAPC     C35      CTL2    -0.180000       12.0110           0
     13753 MEMB     118      SAPC     H5X      HAL2     0.900000E-01   1.00800           0
     13754 MEMB     118      SAPC     H5Y      HAL2     0.900000E-01   1.00800           0
     13755 MEMB     118      SAPC     C36      CTL2    -0.180000       12.0110           0
     13756 MEMB     118      SAPC     H6X      HAL2     0.900000E-01   1.00800           0
     13757 MEMB     118      SAPC     H6Y      HAL2     0.900000E-01   1.00800           0
     13758 MEMB     118      SAPC     C37      CTL2    -0.180000       12.0110           0
     13759 MEMB     118      SAPC     H7X      HAL2     0.900000E-01   1.00800           0
     13760 MEMB     118      SAPC     H7Y      HAL2     0.900000E-01   1.00800           0
     13761 MEMB     118      SAPC     C38      CTL2    -0.180000       12.0110           0
     13762 MEMB     118      SAPC     H8X      HAL2     0.900000E-01   1.00800           0
     13763 MEMB     118      SAPC     H8Y      HAL2     0.900000E-01   1.00800           0
     13764 MEMB     118      SAPC     C39      CTL2    -0.180000       12.0110           0
     13765 MEMB     118      SAPC     H9X      HAL2     0.900000E-01   1.00800           0
     13766 MEMB     118      SAPC     H9Y      HAL2     0.900000E-01   1.00800           0
     13767 MEMB     118      SAPC     C310     CTL2    -0.180000       12.0110           0
     13768 MEMB     118      SAPC     H10X     HAL2     0.900000E-01   1.00800           0
     13769 MEMB     118      SAPC     H10Y     HAL2     0.900000E-01   1.00800           0
     13770 MEMB     118      SAPC     C311     CTL2    -0.180000       12.0110           0
     13771 MEMB     118      SAPC     H11X     HAL2     0.900000E-01   1.00800           0
     13772 MEMB     118      SAPC     H11Y     HAL2     0.900000E-01   1.00800           0
     13773 MEMB     118      SAPC     C312     CTL2    -0.180000       12.0110           0
     13774 MEMB     118      SAPC     H12X     HAL2     0.900000E-01   1.00800           0
     13775 MEMB     118      SAPC     H12Y     HAL2     0.900000E-01   1.00800           0
     13776 MEMB     118      SAPC     C313     CTL2    -0.180000       12.0110           0
     13777 MEMB     118      SAPC     H13X     HAL2     0.900000E-01   1.00800           0
     13778 MEMB     118      SAPC     H13Y     HAL2     0.900000E-01   1.00800           0
     13779 MEMB     118      SAPC     C314     CTL2    -0.180000       12.0110           0
     13780 MEMB     118      SAPC     H14X     HAL2     0.900000E-01   1.00800           0
     13781 MEMB     118      SAPC     H14Y     HAL2     0.900000E-01   1.00800           0
     13782 MEMB     118      SAPC     C315     CTL2    -0.180000       12.0110           0
     13783 MEMB     118      SAPC     H15X     HAL2     0.900000E-01   1.00800           0
     13784 MEMB     118      SAPC     H15Y     HAL2     0.900000E-01   1.00800           0
     13785 MEMB     118      SAPC     C316     CTL2    -0.180000       12.0110           0
     13786 MEMB     118      SAPC     H16X     HAL2     0.900000E-01   1.00800           0
     13787 MEMB     118      SAPC     H16Y     HAL2     0.900000E-01   1.00800           0
     13788 MEMB     118      SAPC     C317     CTL2    -0.180000       12.0110           0
     13789 MEMB     118      SAPC     H17X     HAL2     0.900000E-01   1.00800           0
     13790 MEMB     118      SAPC     H17Y     HAL2     0.900000E-01   1.00800           0
     13791 MEMB     118      SAPC     C318     CTL3    -0.270000       12.0110           0
     13792 MEMB     118      SAPC     H18X     HAL3     0.900000E-01   1.00800           0
     13793 MEMB     118      SAPC     H18Y     HAL3     0.900000E-01   1.00800           0
     13794 MEMB     118      SAPC     H18Z     HAL3     0.900000E-01   1.00800           0
     13795 MEMB     119      CHL1     C3       CRL1     0.140000       12.0110           0
     13796 MEMB     119      CHL1     H3       HGA1     0.900000E-01   1.00800           0
     13797 MEMB     119      CHL1     O3       OHL     -0.660000       15.9994           0
     13798 MEMB     119      CHL1     H3'      HOL      0.430000       1.00800           0
     13799 MEMB     119      CHL1     C4       CRL2    -0.180000       12.0110           0
     13800 MEMB     119      CHL1     H4A      HGA2     0.900000E-01   1.00800           0
     13801 MEMB     119      CHL1     H4B      HGA2     0.900000E-01   1.00800           0
     13802 MEMB     119      CHL1     C5       CEL1      0.00000       12.0110           0
     13803 MEMB     119      CHL1     C6       CEL1    -0.150000       12.0110           0
     13804 MEMB     119      CHL1     H6       HEL1     0.150000       1.00800           0
     13805 MEMB     119      CHL1     C7       CRL2    -0.180000       12.0110           0
     13806 MEMB     119      CHL1     H7A      HGA2     0.900000E-01   1.00800           0
     13807 MEMB     119      CHL1     H7B      HGA2     0.900000E-01   1.00800           0
     13808 MEMB     119      CHL1     C8       CRL1    -0.900000E-01   12.0110           0
     13809 MEMB     119      CHL1     H8       HGA1     0.900000E-01   1.00800           0
     13810 MEMB     119      CHL1     C14      CRL1    -0.900000E-01   12.0110           0
     13811 MEMB     119      CHL1     H14      HGA1     0.900000E-01   1.00800           0
     13812 MEMB     119      CHL1     C15      CRL2    -0.180000       12.0110           0
     13813 MEMB     119      CHL1     H15A     HGA2     0.900000E-01   1.00800           0
     13814 MEMB     119      CHL1     H15B     HGA2     0.900000E-01   1.00800           0
     13815 MEMB     119      CHL1     C16      CRL2    -0.180000       12.0110           0
     13816 MEMB     119      CHL1     H16A     HGA2     0.900000E-01   1.00800           0
     13817 MEMB     119      CHL1     H16B     HGA2     0.900000E-01   1.00800           0
     13818 MEMB     119      CHL1     C17      CRL1    -0.900000E-01   12.0110           0
     13819 MEMB     119      CHL1     H17      HGA1     0.900000E-01   1.00800           0
     13820 MEMB     119      CHL1     C13      CRL1      0.00000       12.0110           0
     13821 MEMB     119      CHL1     C18      CTL3    -0.270000       12.0110           0
     13822 MEMB     119      CHL1     H18A     HAL3     0.900000E-01   1.00800           0
     13823 MEMB     119      CHL1     H18B     HAL3     0.900000E-01   1.00800           0
     13824 MEMB     119      CHL1     H18C     HAL3     0.900000E-01   1.00800           0
     13825 MEMB     119      CHL1     C12      CRL2    -0.180000       12.0110           0
     13826 MEMB     119      CHL1     H12A     HGA2     0.900000E-01   1.00800           0
     13827 MEMB     119      CHL1     H12B     HGA2     0.900000E-01   1.00800           0
     13828 MEMB     119      CHL1     C11      CRL2    -0.180000       12.0110           0
     13829 MEMB     119      CHL1     H11A     HGA2     0.900000E-01   1.00800           0
     13830 MEMB     119      CHL1     H11B     HGA2     0.900000E-01   1.00800           0
     13831 MEMB     119      CHL1     C9       CRL1    -0.900000E-01   12.0110           0
     13832 MEMB     119      CHL1     H9       HGA1     0.900000E-01   1.00800           0
     13833 MEMB     119      CHL1     C10      CRL1      0.00000       12.0110           0
     13834 MEMB     119      CHL1     C19      CTL3    -0.270000       12.0110           0
     13835 MEMB     119      CHL1     H19A     HAL3     0.900000E-01   1.00800           0
     13836 MEMB     119      CHL1     H19B     HAL3     0.900000E-01   1.00800           0
     13837 MEMB     119      CHL1     H19C     HAL3     0.900000E-01   1.00800           0
     13838 MEMB     119      CHL1     C1       CRL2    -0.180000       12.0110           0
     13839 MEMB     119      CHL1     H1A      HGA2     0.900000E-01   1.00800           0
     13840 MEMB     119      CHL1     H1B      HGA2     0.900000E-01   1.00800           0
     13841 MEMB     119      CHL1     C2       CRL2    -0.180000       12.0110           0
     13842 MEMB     119      CHL1     H2A      HGA2     0.900000E-01   1.00800           0
     13843 MEMB     119      CHL1     H2B      HGA2     0.900000E-01   1.00800           0
     13844 MEMB     119      CHL1     C20      CTL1    -0.900000E-01   12.0110           0
     13845 MEMB     119      CHL1     H20      HAL1     0.900000E-01   1.00800           0
     13846 MEMB     119      CHL1     C21      CTL3    -0.270000       12.0110           0
     13847 MEMB     119      CHL1     H21A     HAL3     0.900000E-01   1.00800           0
     13848 MEMB     119      CHL1     H21B     HAL3     0.900000E-01   1.00800           0
     13849 MEMB     119      CHL1     H21C     HAL3     0.900000E-01   1.00800           0
     13850 MEMB     119      CHL1     C22      CTL2    -0.180000       12.0110           0
     13851 MEMB     119      CHL1     H22A     HAL2     0.900000E-01   1.00800           0
     13852 MEMB     119      CHL1     H22B     HAL2     0.900000E-01   1.00800           0
     13853 MEMB     119      CHL1     C23      CTL2    -0.180000       12.0110           0
     13854 MEMB     119      CHL1     H23A     HAL2     0.900000E-01   1.00800           0
     13855 MEMB     119      CHL1     H23B     HAL2     0.900000E-01   1.00800           0
     13856 MEMB     119      CHL1     C24      CTL2    -0.180000       12.0110           0
     13857 MEMB     119      CHL1     H24A     HAL2     0.900000E-01   1.00800           0
     13858 MEMB     119      CHL1     H24B     HAL2     0.900000E-01   1.00800           0
     13859 MEMB     119      CHL1     C25      CTL1    -0.900000E-01   12.0110           0
     13860 MEMB     119      CHL1     H25      HAL1     0.900000E-01   1.00800           0
     13861 MEMB     119      CHL1     C26      CTL3    -0.270000       12.0110           0
     13862 MEMB     119      CHL1     H26A     HAL3     0.900000E-01   1.00800           0
     13863 MEMB     119      CHL1     H26B     HAL3     0.900000E-01   1.00800           0
     13864 MEMB     119      CHL1     H26C     HAL3     0.900000E-01   1.00800           0
     13865 MEMB     119      CHL1     C27      CTL3    -0.270000       12.0110           0
     13866 MEMB     119      CHL1     H27A     HAL3     0.900000E-01   1.00800           0
     13867 MEMB     119      CHL1     H27B     HAL3     0.900000E-01   1.00800           0
     13868 MEMB     119      CHL1     H27C     HAL3     0.900000E-01   1.00800           0
     13869 MEMB     120      SAPE     N        NH3L    -0.300000       14.0070           0
     13870 MEMB     120      SAPE     HN1      HCL      0.330000       1.00800           0
     13871 MEMB     120      SAPE     HN2      HCL      0.330000       1.00800           0
     13872 MEMB     120      SAPE     HN3      HCL      0.330000       1.00800           0
     13873 MEMB     120      SAPE     C12      CTL2     0.130000       12.0110           0
     13874 MEMB     120      SAPE     H12A     HAL2     0.900000E-01   1.00800           0
     13875 MEMB     120      SAPE     H12B     HAL2     0.900000E-01   1.00800           0
     13876 MEMB     120      SAPE     C11      CTL2    -0.800000E-01   12.0110           0
     13877 MEMB     120      SAPE     H11A     HAL2     0.900000E-01   1.00800           0
     13878 MEMB     120      SAPE     H11B     HAL2     0.900000E-01   1.00800           0
     13879 MEMB     120      SAPE     P        PL        1.50000       30.9740           0
     13880 MEMB     120      SAPE     O13      O2L     -0.780000       15.9994           0
     13881 MEMB     120      SAPE     O14      O2L     -0.780000       15.9994           0
     13882 MEMB     120      SAPE     O12      OSLP    -0.570000       15.9994           0
     13883 MEMB     120      SAPE     O11      OSLP    -0.570000       15.9994           0
     13884 MEMB     120      SAPE     C1       CTL2    -0.800000E-01   12.0110           0
     13885 MEMB     120      SAPE     HA       HAL2     0.900000E-01   1.00800           0
     13886 MEMB     120      SAPE     HB       HAL2     0.900000E-01   1.00800           0
     13887 MEMB     120      SAPE     C2       CTL1     0.170000       12.0110           0
     13888 MEMB     120      SAPE     HS       HAL1     0.900000E-01   1.00800           0
     13889 MEMB     120      SAPE     O21      OSL     -0.490000       15.9994           0
     13890 MEMB     120      SAPE     C21      CL       0.900000       12.0110           0
     13891 MEMB     120      SAPE     O22      OBL     -0.630000       15.9994           0
     13892 MEMB     120      SAPE     C22      CTL2    -0.220000       12.0110           0
     13893 MEMB     120      SAPE     H2R      HAL2     0.900000E-01   1.00800           0
     13894 MEMB     120      SAPE     H2S      HAL2     0.900000E-01   1.00800           0
     13895 MEMB     120      SAPE     C3       CTL2     0.800000E-01   12.0110           0
     13896 MEMB     120      SAPE     HX       HAL2     0.900000E-01   1.00800           0
     13897 MEMB     120      SAPE     HY       HAL2     0.900000E-01   1.00800           0
     13898 MEMB     120      SAPE     O31      OSL     -0.490000       15.9994           0
     13899 MEMB     120      SAPE     C31      CL       0.900000       12.0110           0
     13900 MEMB     120      SAPE     O32      OBL     -0.630000       15.9994           0
     13901 MEMB     120      SAPE     C32      CTL2    -0.220000       12.0110           0
     13902 MEMB     120      SAPE     H2X      HAL2     0.900000E-01   1.00800           0
     13903 MEMB     120      SAPE     H2Y      HAL2     0.900000E-01   1.00800           0
     13904 MEMB     120      SAPE     C23      CTL2    -0.180000       12.0110           0
     13905 MEMB     120      SAPE     H3R      HAL2     0.900000E-01   1.00800           0
     13906 MEMB     120      SAPE     H3S      HAL2     0.900000E-01   1.00800           0
     13907 MEMB     120      SAPE     C24      CTL2    -0.180000       12.0110           0
     13908 MEMB     120      SAPE     H4R      HAL2     0.900000E-01   1.00800           0
     13909 MEMB     120      SAPE     H4S      HAL2     0.900000E-01   1.00800           0
     13910 MEMB     120      SAPE     C25      CEL1    -0.150000       12.0110           0
     13911 MEMB     120      SAPE     H5R      HEL1     0.150000       1.00800           0
     13912 MEMB     120      SAPE     C26      CEL1    -0.150000       12.0110           0
     13913 MEMB     120      SAPE     H6R      HEL1     0.150000       1.00800           0
     13914 MEMB     120      SAPE     C27      CTL2    -0.180000       12.0110           0
     13915 MEMB     120      SAPE     H7R      HAL2     0.900000E-01   1.00800           0
     13916 MEMB     120      SAPE     H7S      HAL2     0.900000E-01   1.00800           0
     13917 MEMB     120      SAPE     C28      CEL1    -0.150000       12.0110           0
     13918 MEMB     120      SAPE     H8R      HEL1     0.150000       1.00800           0
     13919 MEMB     120      SAPE     C29      CEL1    -0.150000       12.0110           0
     13920 MEMB     120      SAPE     H9R      HEL1     0.150000       1.00800           0
     13921 MEMB     120      SAPE     C210     CTL2    -0.180000       12.0110           0
     13922 MEMB     120      SAPE     H10R     HAL2     0.900000E-01   1.00800           0
     13923 MEMB     120      SAPE     H10S     HAL2     0.900000E-01   1.00800           0
     13924 MEMB     120      SAPE     C211     CEL1    -0.150000       12.0110           0
     13925 MEMB     120      SAPE     H11R     HEL1     0.150000       1.00800           0
     13926 MEMB     120      SAPE     C212     CEL1    -0.150000       12.0110           0
     13927 MEMB     120      SAPE     H12R     HEL1     0.150000       1.00800           0
     13928 MEMB     120      SAPE     C213     CTL2    -0.180000       12.0110           0
     13929 MEMB     120      SAPE     H13R     HAL2     0.900000E-01   1.00800           0
     13930 MEMB     120      SAPE     H13S     HAL2     0.900000E-01   1.00800           0
     13931 MEMB     120      SAPE     C214     CEL1    -0.150000       12.0110           0
     13932 MEMB     120      SAPE     H14R     HEL1     0.150000       1.00800           0
     13933 MEMB     120      SAPE     C215     CEL1    -0.150000       12.0110           0
     13934 MEMB     120      SAPE     H15R     HEL1     0.150000       1.00800           0
     13935 MEMB     120      SAPE     C216     CTL2    -0.180000       12.0110           0
     13936 MEMB     120      SAPE     H16R     HAL2     0.900000E-01   1.00800           0
     13937 MEMB     120      SAPE     H16S     HAL2     0.900000E-01   1.00800           0
     13938 MEMB     120      SAPE     C217     CTL2    -0.180000       12.0110           0
     13939 MEMB     120      SAPE     H17R     HAL2     0.900000E-01   1.00800           0
     13940 MEMB     120      SAPE     H17S     HAL2     0.900000E-01   1.00800           0
     13941 MEMB     120      SAPE     C218     CTL2    -0.180000       12.0110           0
     13942 MEMB     120      SAPE     H18R     HAL2     0.900000E-01   1.00800           0
     13943 MEMB     120      SAPE     H18S     HAL2     0.900000E-01   1.00800           0
     13944 MEMB     120      SAPE     C219     CTL2    -0.180000       12.0110           0
     13945 MEMB     120      SAPE     H19R     HAL2     0.900000E-01   1.00800           0
     13946 MEMB     120      SAPE     H19S     HAL2     0.900000E-01   1.00800           0
     13947 MEMB     120      SAPE     C220     CTL3    -0.270000       12.0110           0
     13948 MEMB     120      SAPE     H20R     HAL3     0.900000E-01   1.00800           0
     13949 MEMB     120      SAPE     H20S     HAL3     0.900000E-01   1.00800           0
     13950 MEMB     120      SAPE     H20T     HAL3     0.900000E-01   1.00800           0
     13951 MEMB     120      SAPE     C33      CTL2    -0.180000       12.0110           0
     13952 MEMB     120      SAPE     H3X      HAL2     0.900000E-01   1.00800           0
     13953 MEMB     120      SAPE     H3Y      HAL2     0.900000E-01   1.00800           0
     13954 MEMB     120      SAPE     C34      CTL2    -0.180000       12.0110           0
     13955 MEMB     120      SAPE     H4X      HAL2     0.900000E-01   1.00800           0
     13956 MEMB     120      SAPE     H4Y      HAL2     0.900000E-01   1.00800           0
     13957 MEMB     120      SAPE     C35      CTL2    -0.180000       12.0110           0
     13958 MEMB     120      SAPE     H5X      HAL2     0.900000E-01   1.00800           0
     13959 MEMB     120      SAPE     H5Y      HAL2     0.900000E-01   1.00800           0
     13960 MEMB     120      SAPE     C36      CTL2    -0.180000       12.0110           0
     13961 MEMB     120      SAPE     H6X      HAL2     0.900000E-01   1.00800           0
     13962 MEMB     120      SAPE     H6Y      HAL2     0.900000E-01   1.00800           0
     13963 MEMB     120      SAPE     C37      CTL2    -0.180000       12.0110           0
     13964 MEMB     120      SAPE     H7X      HAL2     0.900000E-01   1.00800           0
     13965 MEMB     120      SAPE     H7Y      HAL2     0.900000E-01   1.00800           0
     13966 MEMB     120      SAPE     C38      CTL2    -0.180000       12.0110           0
     13967 MEMB     120      SAPE     H8X      HAL2     0.900000E-01   1.00800           0
     13968 MEMB     120      SAPE     H8Y      HAL2     0.900000E-01   1.00800           0
     13969 MEMB     120      SAPE     C39      CTL2    -0.180000       12.0110           0
     13970 MEMB     120      SAPE     H9X      HAL2     0.900000E-01   1.00800           0
     13971 MEMB     120      SAPE     H9Y      HAL2     0.900000E-01   1.00800           0
     13972 MEMB     120      SAPE     C310     CTL2    -0.180000       12.0110           0
     13973 MEMB     120      SAPE     H10X     HAL2     0.900000E-01   1.00800           0
     13974 MEMB     120      SAPE     H10Y     HAL2     0.900000E-01   1.00800           0
     13975 MEMB     120      SAPE     C311     CTL2    -0.180000       12.0110           0
     13976 MEMB     120      SAPE     H11X     HAL2     0.900000E-01   1.00800           0
     13977 MEMB     120      SAPE     H11Y     HAL2     0.900000E-01   1.00800           0
     13978 MEMB     120      SAPE     C312     CTL2    -0.180000       12.0110           0
     13979 MEMB     120      SAPE     H12X     HAL2     0.900000E-01   1.00800           0
     13980 MEMB     120      SAPE     H12Y     HAL2     0.900000E-01   1.00800           0
     13981 MEMB     120      SAPE     C313     CTL2    -0.180000       12.0110           0
     13982 MEMB     120      SAPE     H13X     HAL2     0.900000E-01   1.00800           0
     13983 MEMB     120      SAPE     H13Y     HAL2     0.900000E-01   1.00800           0
     13984 MEMB     120      SAPE     C314     CTL2    -0.180000       12.0110           0
     13985 MEMB     120      SAPE     H14X     HAL2     0.900000E-01   1.00800           0
     13986 MEMB     120      SAPE     H14Y     HAL2     0.900000E-01   1.00800           0
     13987 MEMB     120      SAPE     C315     CTL2    -0.180000       12.0110           0
     13988 MEMB     120      SAPE     H15X     HAL2     0.900000E-01   1.00800           0
     13989 MEMB     120      SAPE     H15Y     HAL2     0.900000E-01   1.00800           0
     13990 MEMB     120      SAPE     C316     CTL2    -0.180000       12.0110           0
     13991 MEMB     120      SAPE     H16X     HAL2     0.900000E-01   1.00800           0
     13992 MEMB     120      SAPE     H16Y     HAL2     0.900000E-01   1.00800           0
     13993 MEMB     120      SAPE     C317     CTL2    -0.180000       12.0110           0
     13994 MEMB     120      SAPE     H17X     HAL2     0.900000E-01   1.00800           0
     13995 MEMB     120      SAPE     H17Y     HAL2     0.900000E-01   1.00800           0
     13996 MEMB     120      SAPE     C318     CTL3    -0.270000       12.0110           0
     13997 MEMB     120      SAPE     H18X     HAL3     0.900000E-01   1.00800           0
     13998 MEMB     120      SAPE     H18Y     HAL3     0.900000E-01   1.00800           0
     13999 MEMB     120      SAPE     H18Z     HAL3     0.900000E-01   1.00800           0
     14000 MEMB     121      SLPC     N        NTL     -0.600000       14.0070           0
     14001 MEMB     121      SLPC     C13      CTL5    -0.350000       12.0110           0
     14002 MEMB     121      SLPC     H13A     HL       0.250000       1.00800           0
     14003 MEMB     121      SLPC     H13B     HL       0.250000       1.00800           0
     14004 MEMB     121      SLPC     H13C     HL       0.250000       1.00800           0
     14005 MEMB     121      SLPC     C14      CTL5    -0.350000       12.0110           0
     14006 MEMB     121      SLPC     H14A     HL       0.250000       1.00800           0
     14007 MEMB     121      SLPC     H14B     HL       0.250000       1.00800           0
     14008 MEMB     121      SLPC     H14C     HL       0.250000       1.00800           0
     14009 MEMB     121      SLPC     C15      CTL5    -0.350000       12.0110           0
     14010 MEMB     121      SLPC     H15A     HL       0.250000       1.00800           0
     14011 MEMB     121      SLPC     H15B     HL       0.250000       1.00800           0
     14012 MEMB     121      SLPC     H15C     HL       0.250000       1.00800           0
     14013 MEMB     121      SLPC     C12      CTL2    -0.100000       12.0110           0
     14014 MEMB     121      SLPC     H12A     HL       0.250000       1.00800           0
     14015 MEMB     121      SLPC     H12B     HL       0.250000       1.00800           0
     14016 MEMB     121      SLPC     C11      CTL2    -0.800000E-01   12.0110           0
     14017 MEMB     121      SLPC     H11A     HAL2     0.900000E-01   1.00800           0
     14018 MEMB     121      SLPC     H11B     HAL2     0.900000E-01   1.00800           0
     14019 MEMB     121      SLPC     P        PL        1.50000       30.9740           0
     14020 MEMB     121      SLPC     O13      O2L     -0.780000       15.9994           0
     14021 MEMB     121      SLPC     O14      O2L     -0.780000       15.9994           0
     14022 MEMB     121      SLPC     O12      OSLP    -0.570000       15.9994           0
     14023 MEMB     121      SLPC     O11      OSLP    -0.570000       15.9994           0
     14024 MEMB     121      SLPC     C1       CTL2    -0.800000E-01   12.0110           0
     14025 MEMB     121      SLPC     HA       HAL2     0.900000E-01   1.00800           0
     14026 MEMB     121      SLPC     HB       HAL2     0.900000E-01   1.00800           0
     14027 MEMB     121      SLPC     C2       CTL1     0.170000       12.0110           0
     14028 MEMB     121      SLPC     HS       HAL1     0.900000E-01   1.00800           0
     14029 MEMB     121      SLPC     O21      OSL     -0.490000       15.9994           0
     14030 MEMB     121      SLPC     C21      CL       0.900000       12.0110           0
     14031 MEMB     121      SLPC     O22      OBL     -0.630000       15.9994           0
     14032 MEMB     121      SLPC     C22      CTL2    -0.220000       12.0110           0
     14033 MEMB     121      SLPC     H2R      HAL2     0.900000E-01   1.00800           0
     14034 MEMB     121      SLPC     H2S      HAL2     0.900000E-01   1.00800           0
     14035 MEMB     121      SLPC     C3       CTL2     0.800000E-01   12.0110           0
     14036 MEMB     121      SLPC     HX       HAL2     0.900000E-01   1.00800           0
     14037 MEMB     121      SLPC     HY       HAL2     0.900000E-01   1.00800           0
     14038 MEMB     121      SLPC     O31      OSL     -0.490000       15.9994           0
     14039 MEMB     121      SLPC     C31      CL       0.900000       12.0110           0
     14040 MEMB     121      SLPC     O32      OBL     -0.630000       15.9994           0
     14041 MEMB     121      SLPC     C32      CTL2    -0.220000       12.0110           0
     14042 MEMB     121      SLPC     H2X      HAL2     0.900000E-01   1.00800           0
     14043 MEMB     121      SLPC     H2Y      HAL2     0.900000E-01   1.00800           0
     14044 MEMB     121      SLPC     C23      CTL2    -0.180000       12.0110           0
     14045 MEMB     121      SLPC     H3R      HAL2     0.900000E-01   1.00800           0
     14046 MEMB     121      SLPC     H3S      HAL2     0.900000E-01   1.00800           0
     14047 MEMB     121      SLPC     C24      CTL2    -0.180000       12.0110           0
     14048 MEMB     121      SLPC     H4R      HAL2     0.900000E-01   1.00800           0
     14049 MEMB     121      SLPC     H4S      HAL2     0.900000E-01   1.00800           0
     14050 MEMB     121      SLPC     C25      CTL2    -0.180000       12.0110           0
     14051 MEMB     121      SLPC     H5R      HAL2     0.900000E-01   1.00800           0
     14052 MEMB     121      SLPC     H5S      HAL2     0.900000E-01   1.00800           0
     14053 MEMB     121      SLPC     C26      CTL2    -0.180000       12.0110           0
     14054 MEMB     121      SLPC     H6R      HAL2     0.900000E-01   1.00800           0
     14055 MEMB     121      SLPC     H6S      HAL2     0.900000E-01   1.00800           0
     14056 MEMB     121      SLPC     C27      CTL2    -0.180000       12.0110           0
     14057 MEMB     121      SLPC     H7R      HAL2     0.900000E-01   1.00800           0
     14058 MEMB     121      SLPC     H7S      HAL2     0.900000E-01   1.00800           0
     14059 MEMB     121      SLPC     C28      CTL2    -0.180000       12.0110           0
     14060 MEMB     121      SLPC     H8R      HAL2     0.900000E-01   1.00800           0
     14061 MEMB     121      SLPC     H8S      HAL2     0.900000E-01   1.00800           0
     14062 MEMB     121      SLPC     C29      CEL1    -0.150000       12.0110           0
     14063 MEMB     121      SLPC     H9R      HEL1     0.150000       1.00800           0
     14064 MEMB     121      SLPC     C210     CEL1    -0.150000       12.0110           0
     14065 MEMB     121      SLPC     H10R     HEL1     0.150000       1.00800           0
     14066 MEMB     121      SLPC     C211     CTL2    -0.180000       12.0110           0
     14067 MEMB     121      SLPC     H11R     HAL2     0.900000E-01   1.00800           0
     14068 MEMB     121      SLPC     H11S     HAL2     0.900000E-01   1.00800           0
     14069 MEMB     121      SLPC     C212     CEL1    -0.150000       12.0110           0
     14070 MEMB     121      SLPC     H12R     HEL1     0.150000       1.00800           0
     14071 MEMB     121      SLPC     C213     CEL1    -0.150000       12.0110           0
     14072 MEMB     121      SLPC     H13R     HEL1     0.150000       1.00800           0
     14073 MEMB     121      SLPC     C214     CTL2    -0.180000       12.0110           0
     14074 MEMB     121      SLPC     H14R     HAL2     0.900000E-01   1.00800           0
     14075 MEMB     121      SLPC     H14S     HAL2     0.900000E-01   1.00800           0
     14076 MEMB     121      SLPC     C215     CTL2    -0.180000       12.0110           0
     14077 MEMB     121      SLPC     H15R     HAL2     0.900000E-01   1.00800           0
     14078 MEMB     121      SLPC     H15S     HAL2     0.900000E-01   1.00800           0
     14079 MEMB     121      SLPC     C216     CTL2    -0.180000       12.0110           0
     14080 MEMB     121      SLPC     H16R     HAL2     0.900000E-01   1.00800           0
     14081 MEMB     121      SLPC     H16S     HAL2     0.900000E-01   1.00800           0
     14082 MEMB     121      SLPC     C217     CTL2    -0.180000       12.0110           0
     14083 MEMB     121      SLPC     H17R     HAL2     0.900000E-01   1.00800           0
     14084 MEMB     121      SLPC     H17S     HAL2     0.900000E-01   1.00800           0
     14085 MEMB     121      SLPC     C218     CTL3    -0.270000       12.0110           0
     14086 MEMB     121      SLPC     H18R     HAL3     0.900000E-01   1.00800           0
     14087 MEMB     121      SLPC     H18S     HAL3     0.900000E-01   1.00800           0
     14088 MEMB     121      SLPC     H18T     HAL3     0.900000E-01   1.00800           0
     14089 MEMB     121      SLPC     C33      CTL2    -0.180000       12.0110           0
     14090 MEMB     121      SLPC     H3X      HAL2     0.900000E-01   1.00800           0
     14091 MEMB     121      SLPC     H3Y      HAL2     0.900000E-01   1.00800           0
     14092 MEMB     121      SLPC     C34      CTL2    -0.180000       12.0110           0
     14093 MEMB     121      SLPC     H4X      HAL2     0.900000E-01   1.00800           0
     14094 MEMB     121      SLPC     H4Y      HAL2     0.900000E-01   1.00800           0
     14095 MEMB     121      SLPC     C35      CTL2    -0.180000       12.0110           0
     14096 MEMB     121      SLPC     H5X      HAL2     0.900000E-01   1.00800           0
     14097 MEMB     121      SLPC     H5Y      HAL2     0.900000E-01   1.00800           0
     14098 MEMB     121      SLPC     C36      CTL2    -0.180000       12.0110           0
     14099 MEMB     121      SLPC     H6X      HAL2     0.900000E-01   1.00800           0
     14100 MEMB     121      SLPC     H6Y      HAL2     0.900000E-01   1.00800           0
     14101 MEMB     121      SLPC     C37      CTL2    -0.180000       12.0110           0
     14102 MEMB     121      SLPC     H7X      HAL2     0.900000E-01   1.00800           0
     14103 MEMB     121      SLPC     H7Y      HAL2     0.900000E-01   1.00800           0
     14104 MEMB     121      SLPC     C38      CTL2    -0.180000       12.0110           0
     14105 MEMB     121      SLPC     H8X      HAL2     0.900000E-01   1.00800           0
     14106 MEMB     121      SLPC     H8Y      HAL2     0.900000E-01   1.00800           0
     14107 MEMB     121      SLPC     C39      CTL2    -0.180000       12.0110           0
     14108 MEMB     121      SLPC     H9X      HAL2     0.900000E-01   1.00800           0
     14109 MEMB     121      SLPC     H9Y      HAL2     0.900000E-01   1.00800           0
     14110 MEMB     121      SLPC     C310     CTL2    -0.180000       12.0110           0
     14111 MEMB     121      SLPC     H10X     HAL2     0.900000E-01   1.00800           0
     14112 MEMB     121      SLPC     H10Y     HAL2     0.900000E-01   1.00800           0
     14113 MEMB     121      SLPC     C311     CTL2    -0.180000       12.0110           0
     14114 MEMB     121      SLPC     H11X     HAL2     0.900000E-01   1.00800           0
     14115 MEMB     121      SLPC     H11Y     HAL2     0.900000E-01   1.00800           0
     14116 MEMB     121      SLPC     C312     CTL2    -0.180000       12.0110           0
     14117 MEMB     121      SLPC     H12X     HAL2     0.900000E-01   1.00800           0
     14118 MEMB     121      SLPC     H12Y     HAL2     0.900000E-01   1.00800           0
     14119 MEMB     121      SLPC     C313     CTL2    -0.180000       12.0110           0
     14120 MEMB     121      SLPC     H13X     HAL2     0.900000E-01   1.00800           0
     14121 MEMB     121      SLPC     H13Y     HAL2     0.900000E-01   1.00800           0
     14122 MEMB     121      SLPC     C314     CTL2    -0.180000       12.0110           0
     14123 MEMB     121      SLPC     H14X     HAL2     0.900000E-01   1.00800           0
     14124 MEMB     121      SLPC     H14Y     HAL2     0.900000E-01   1.00800           0
     14125 MEMB     121      SLPC     C315     CTL2    -0.180000       12.0110           0
     14126 MEMB     121      SLPC     H15X     HAL2     0.900000E-01   1.00800           0
     14127 MEMB     121      SLPC     H15Y     HAL2     0.900000E-01   1.00800           0
     14128 MEMB     121      SLPC     C316     CTL2    -0.180000       12.0110           0
     14129 MEMB     121      SLPC     H16X     HAL2     0.900000E-01   1.00800           0
     14130 MEMB     121      SLPC     H16Y     HAL2     0.900000E-01   1.00800           0
     14131 MEMB     121      SLPC     C317     CTL2    -0.180000       12.0110           0
     14132 MEMB     121      SLPC     H17X     HAL2     0.900000E-01   1.00800           0
     14133 MEMB     121      SLPC     H17Y     HAL2     0.900000E-01   1.00800           0
     14134 MEMB     121      SLPC     C318     CTL3    -0.270000       12.0110           0
     14135 MEMB     121      SLPC     H18X     HAL3     0.900000E-01   1.00800           0
     14136 MEMB     121      SLPC     H18Y     HAL3     0.900000E-01   1.00800           0
     14137 MEMB     121      SLPC     H18Z     HAL3     0.900000E-01   1.00800           0
     14138 MEMB     122      SAPI     C12      CC3161   0.140000       12.0110           0
     14139 MEMB     122      SAPI     H2       HCA1     0.900000E-01   1.00800           0
     14140 MEMB     122      SAPI     O2       OC311   -0.650000       15.9994           0
     14141 MEMB     122      SAPI     HO2      HCP1     0.420000       1.00800           0
     14142 MEMB     122      SAPI     C13      CC3161   0.140000       12.0110           0
     14143 MEMB     122      SAPI     H3       HCA1     0.900000E-01   1.00800           0
     14144 MEMB     122      SAPI     O3       OC311   -0.650000       15.9994           0
     14145 MEMB     122      SAPI     HO3      HCP1     0.420000       1.00800           0
     14146 MEMB     122      SAPI     C14      CC3161   0.140000       12.0110           0
     14147 MEMB     122      SAPI     H4       HCA1     0.900000E-01   1.00800           0
     14148 MEMB     122      SAPI     O4       OC311   -0.650000       15.9994           0
     14149 MEMB     122      SAPI     HO4      HCP1     0.420000       1.00800           0
     14150 MEMB     122      SAPI     C15      CC3161   0.140000       12.0110           0
     14151 MEMB     122      SAPI     H5       HCA1     0.900000E-01   1.00800           0
     14152 MEMB     122      SAPI     O5       OC311   -0.650000       15.9994           0
     14153 MEMB     122      SAPI     HO5      HCP1     0.420000       1.00800           0
     14154 MEMB     122      SAPI     C16      CC3161   0.140000       12.0110           0
     14155 MEMB     122      SAPI     H6       HCA1     0.900000E-01   1.00800           0
     14156 MEMB     122      SAPI     O6       OC311   -0.650000       15.9994           0
     14157 MEMB     122      SAPI     HO6      HCP1     0.420000       1.00800           0
     14158 MEMB     122      SAPI     C11      CC3161  -0.800000E-01   12.0110           0
     14159 MEMB     122      SAPI     H1       HCA1     0.900000E-01   1.00800           0
     14160 MEMB     122      SAPI     P        PL        1.59000       30.9740           0
     14161 MEMB     122      SAPI     O13      O2L     -0.780000       15.9994           0
     14162 MEMB     122      SAPI     O14      O2L     -0.780000       15.9994           0
     14163 MEMB     122      SAPI     O12      OC30P   -0.570000       15.9994           0
     14164 MEMB     122      SAPI     O11      OSLP    -0.570000       15.9994           0
     14165 MEMB     122      SAPI     C1       CTL2    -0.800000E-01   12.0110           0
     14166 MEMB     122      SAPI     HA       HAL2     0.900000E-01   1.00800           0
     14167 MEMB     122      SAPI     HB       HAL2     0.900000E-01   1.00800           0
     14168 MEMB     122      SAPI     C2       CTL1     0.170000       12.0110           0
     14169 MEMB     122      SAPI     HS       HAL1     0.900000E-01   1.00800           0
     14170 MEMB     122      SAPI     O21      OSL     -0.490000       15.9994           0
     14171 MEMB     122      SAPI     C21      CL       0.900000       12.0110           0
     14172 MEMB     122      SAPI     O22      OBL     -0.630000       15.9994           0
     14173 MEMB     122      SAPI     C22      CTL2    -0.220000       12.0110           0
     14174 MEMB     122      SAPI     H2R      HAL2     0.900000E-01   1.00800           0
     14175 MEMB     122      SAPI     H2S      HAL2     0.900000E-01   1.00800           0
     14176 MEMB     122      SAPI     C3       CTL2     0.800000E-01   12.0110           0
     14177 MEMB     122      SAPI     HX       HAL2     0.900000E-01   1.00800           0
     14178 MEMB     122      SAPI     HY       HAL2     0.900000E-01   1.00800           0
     14179 MEMB     122      SAPI     O31      OSL     -0.490000       15.9994           0
     14180 MEMB     122      SAPI     C31      CL       0.900000       12.0110           0
     14181 MEMB     122      SAPI     O32      OBL     -0.630000       15.9994           0
     14182 MEMB     122      SAPI     C32      CTL2    -0.220000       12.0110           0
     14183 MEMB     122      SAPI     H2X      HAL2     0.900000E-01   1.00800           0
     14184 MEMB     122      SAPI     H2Y      HAL2     0.900000E-01   1.00800           0
     14185 MEMB     122      SAPI     C23      CTL2    -0.180000       12.0110           0
     14186 MEMB     122      SAPI     H3R      HAL2     0.900000E-01   1.00800           0
     14187 MEMB     122      SAPI     H3S      HAL2     0.900000E-01   1.00800           0
     14188 MEMB     122      SAPI     C24      CTL2    -0.180000       12.0110           0
     14189 MEMB     122      SAPI     H4R      HAL2     0.900000E-01   1.00800           0
     14190 MEMB     122      SAPI     H4S      HAL2     0.900000E-01   1.00800           0
     14191 MEMB     122      SAPI     C25      CEL1    -0.150000       12.0110           0
     14192 MEMB     122      SAPI     H5R      HEL1     0.150000       1.00800           0
     14193 MEMB     122      SAPI     C26      CEL1    -0.150000       12.0110           0
     14194 MEMB     122      SAPI     H6R      HEL1     0.150000       1.00800           0
     14195 MEMB     122      SAPI     C27      CTL2    -0.180000       12.0110           0
     14196 MEMB     122      SAPI     H7R      HAL2     0.900000E-01   1.00800           0
     14197 MEMB     122      SAPI     H7S      HAL2     0.900000E-01   1.00800           0
     14198 MEMB     122      SAPI     C28      CEL1    -0.150000       12.0110           0
     14199 MEMB     122      SAPI     H8R      HEL1     0.150000       1.00800           0
     14200 MEMB     122      SAPI     C29      CEL1    -0.150000       12.0110           0
     14201 MEMB     122      SAPI     H9R      HEL1     0.150000       1.00800           0
     14202 MEMB     122      SAPI     C210     CTL2    -0.180000       12.0110           0
     14203 MEMB     122      SAPI     H10R     HAL2     0.900000E-01   1.00800           0
     14204 MEMB     122      SAPI     H10S     HAL2     0.900000E-01   1.00800           0
     14205 MEMB     122      SAPI     C211     CEL1    -0.150000       12.0110           0
     14206 MEMB     122      SAPI     H11R     HEL1     0.150000       1.00800           0
     14207 MEMB     122      SAPI     C212     CEL1    -0.150000       12.0110           0
     14208 MEMB     122      SAPI     H12R     HEL1     0.150000       1.00800           0
     14209 MEMB     122      SAPI     C213     CTL2    -0.180000       12.0110           0
     14210 MEMB     122      SAPI     H13R     HAL2     0.900000E-01   1.00800           0
     14211 MEMB     122      SAPI     H13S     HAL2     0.900000E-01   1.00800           0
     14212 MEMB     122      SAPI     C214     CEL1    -0.150000       12.0110           0
     14213 MEMB     122      SAPI     H14R     HEL1     0.150000       1.00800           0
     14214 MEMB     122      SAPI     C215     CEL1    -0.150000       12.0110           0
     14215 MEMB     122      SAPI     H15R     HEL1     0.150000       1.00800           0
     14216 MEMB     122      SAPI     C216     CTL2    -0.180000       12.0110           0
     14217 MEMB     122      SAPI     H16R     HAL2     0.900000E-01   1.00800           0
     14218 MEMB     122      SAPI     H16S     HAL2     0.900000E-01   1.00800           0
     14219 MEMB     122      SAPI     C217     CTL2    -0.180000       12.0110           0
     14220 MEMB     122      SAPI     H17R     HAL2     0.900000E-01   1.00800           0
     14221 MEMB     122      SAPI     H17S     HAL2     0.900000E-01   1.00800           0
     14222 MEMB     122      SAPI     C218     CTL2    -0.180000       12.0110           0
     14223 MEMB     122      SAPI     H18R     HAL2     0.900000E-01   1.00800           0
     14224 MEMB     122      SAPI     H18S     HAL2     0.900000E-01   1.00800           0
     14225 MEMB     122      SAPI     C219     CTL2    -0.180000       12.0110           0
     14226 MEMB     122      SAPI     H19R     HAL2     0.900000E-01   1.00800           0
     14227 MEMB     122      SAPI     H19S     HAL2     0.900000E-01   1.00800           0
     14228 MEMB     122      SAPI     C220     CTL3    -0.270000       12.0110           0
     14229 MEMB     122      SAPI     H20R     HAL3     0.900000E-01   1.00800           0
     14230 MEMB     122      SAPI     H20S     HAL3     0.900000E-01   1.00800           0
     14231 MEMB     122      SAPI     H20T     HAL3     0.900000E-01   1.00800           0
     14232 MEMB     122      SAPI     C33      CTL2    -0.180000       12.0110           0
     14233 MEMB     122      SAPI     H3X      HAL2     0.900000E-01   1.00800           0
     14234 MEMB     122      SAPI     H3Y      HAL2     0.900000E-01   1.00800           0
     14235 MEMB     122      SAPI     C34      CTL2    -0.180000       12.0110           0
     14236 MEMB     122      SAPI     H4X      HAL2     0.900000E-01   1.00800           0
     14237 MEMB     122      SAPI     H4Y      HAL2     0.900000E-01   1.00800           0
     14238 MEMB     122      SAPI     C35      CTL2    -0.180000       12.0110           0
     14239 MEMB     122      SAPI     H5X      HAL2     0.900000E-01   1.00800           0
     14240 MEMB     122      SAPI     H5Y      HAL2     0.900000E-01   1.00800           0
     14241 MEMB     122      SAPI     C36      CTL2    -0.180000       12.0110           0
     14242 MEMB     122      SAPI     H6X      HAL2     0.900000E-01   1.00800           0
     14243 MEMB     122      SAPI     H6Y      HAL2     0.900000E-01   1.00800           0
     14244 MEMB     122      SAPI     C37      CTL2    -0.180000       12.0110           0
     14245 MEMB     122      SAPI     H7X      HAL2     0.900000E-01   1.00800           0
     14246 MEMB     122      SAPI     H7Y      HAL2     0.900000E-01   1.00800           0
     14247 MEMB     122      SAPI     C38      CTL2    -0.180000       12.0110           0
     14248 MEMB     122      SAPI     H8X      HAL2     0.900000E-01   1.00800           0
     14249 MEMB     122      SAPI     H8Y      HAL2     0.900000E-01   1.00800           0
     14250 MEMB     122      SAPI     C39      CTL2    -0.180000       12.0110           0
     14251 MEMB     122      SAPI     H9X      HAL2     0.900000E-01   1.00800           0
     14252 MEMB     122      SAPI     H9Y      HAL2     0.900000E-01   1.00800           0
     14253 MEMB     122      SAPI     C310     CTL2    -0.180000       12.0110           0
     14254 MEMB     122      SAPI     H10X     HAL2     0.900000E-01   1.00800           0
     14255 MEMB     122      SAPI     H10Y     HAL2     0.900000E-01   1.00800           0
     14256 MEMB     122      SAPI     C311     CTL2    -0.180000       12.0110           0
     14257 MEMB     122      SAPI     H11X     HAL2     0.900000E-01   1.00800           0
     14258 MEMB     122      SAPI     H11Y     HAL2     0.900000E-01   1.00800           0
     14259 MEMB     122      SAPI     C312     CTL2    -0.180000       12.0110           0
     14260 MEMB     122      SAPI     H12X     HAL2     0.900000E-01   1.00800           0
     14261 MEMB     122      SAPI     H12Y     HAL2     0.900000E-01   1.00800           0
     14262 MEMB     122      SAPI     C313     CTL2    -0.180000       12.0110           0
     14263 MEMB     122      SAPI     H13X     HAL2     0.900000E-01   1.00800           0
     14264 MEMB     122      SAPI     H13Y     HAL2     0.900000E-01   1.00800           0
     14265 MEMB     122      SAPI     C314     CTL2    -0.180000       12.0110           0
     14266 MEMB     122      SAPI     H14X     HAL2     0.900000E-01   1.00800           0
     14267 MEMB     122      SAPI     H14Y     HAL2     0.900000E-01   1.00800           0
     14268 MEMB     122      SAPI     C315     CTL2    -0.180000       12.0110           0
     14269 MEMB     122      SAPI     H15X     HAL2     0.900000E-01   1.00800           0
     14270 MEMB     122      SAPI     H15Y     HAL2     0.900000E-01   1.00800           0
     14271 MEMB     122      SAPI     C316     CTL2    -0.180000       12.0110           0
     14272 MEMB     122      SAPI     H16X     HAL2     0.900000E-01   1.00800           0
     14273 MEMB     122      SAPI     H16Y     HAL2     0.900000E-01   1.00800           0
     14274 MEMB     122      SAPI     C317     CTL2    -0.180000       12.0110           0
     14275 MEMB     122      SAPI     H17X     HAL2     0.900000E-01   1.00800           0
     14276 MEMB     122      SAPI     H17Y     HAL2     0.900000E-01   1.00800           0
     14277 MEMB     122      SAPI     C318     CTL3    -0.270000       12.0110           0
     14278 MEMB     122      SAPI     H18X     HAL3     0.900000E-01   1.00800           0
     14279 MEMB     122      SAPI     H18Y     HAL3     0.900000E-01   1.00800           0
     14280 MEMB     122      SAPI     H18Z     HAL3     0.900000E-01   1.00800           0
     14281 MEMB     123      SAPE     N        NH3L    -0.300000       14.0070           0
     14282 MEMB     123      SAPE     HN1      HCL      0.330000       1.00800           0
     14283 MEMB     123      SAPE     HN2      HCL      0.330000       1.00800           0
     14284 MEMB     123      SAPE     HN3      HCL      0.330000       1.00800           0
     14285 MEMB     123      SAPE     C12      CTL2     0.130000       12.0110           0
     14286 MEMB     123      SAPE     H12A     HAL2     0.900000E-01   1.00800           0
     14287 MEMB     123      SAPE     H12B     HAL2     0.900000E-01   1.00800           0
     14288 MEMB     123      SAPE     C11      CTL2    -0.800000E-01   12.0110           0
     14289 MEMB     123      SAPE     H11A     HAL2     0.900000E-01   1.00800           0
     14290 MEMB     123      SAPE     H11B     HAL2     0.900000E-01   1.00800           0
     14291 MEMB     123      SAPE     P        PL        1.50000       30.9740           0
     14292 MEMB     123      SAPE     O13      O2L     -0.780000       15.9994           0
     14293 MEMB     123      SAPE     O14      O2L     -0.780000       15.9994           0
     14294 MEMB     123      SAPE     O12      OSLP    -0.570000       15.9994           0
     14295 MEMB     123      SAPE     O11      OSLP    -0.570000       15.9994           0
     14296 MEMB     123      SAPE     C1       CTL2    -0.800000E-01   12.0110           0
     14297 MEMB     123      SAPE     HA       HAL2     0.900000E-01   1.00800           0
     14298 MEMB     123      SAPE     HB       HAL2     0.900000E-01   1.00800           0
     14299 MEMB     123      SAPE     C2       CTL1     0.170000       12.0110           0
     14300 MEMB     123      SAPE     HS       HAL1     0.900000E-01   1.00800           0
     14301 MEMB     123      SAPE     O21      OSL     -0.490000       15.9994           0
     14302 MEMB     123      SAPE     C21      CL       0.900000       12.0110           0
     14303 MEMB     123      SAPE     O22      OBL     -0.630000       15.9994           0
     14304 MEMB     123      SAPE     C22      CTL2    -0.220000       12.0110           0
     14305 MEMB     123      SAPE     H2R      HAL2     0.900000E-01   1.00800           0
     14306 MEMB     123      SAPE     H2S      HAL2     0.900000E-01   1.00800           0
     14307 MEMB     123      SAPE     C3       CTL2     0.800000E-01   12.0110           0
     14308 MEMB     123      SAPE     HX       HAL2     0.900000E-01   1.00800           0
     14309 MEMB     123      SAPE     HY       HAL2     0.900000E-01   1.00800           0
     14310 MEMB     123      SAPE     O31      OSL     -0.490000       15.9994           0
     14311 MEMB     123      SAPE     C31      CL       0.900000       12.0110           0
     14312 MEMB     123      SAPE     O32      OBL     -0.630000       15.9994           0
     14313 MEMB     123      SAPE     C32      CTL2    -0.220000       12.0110           0
     14314 MEMB     123      SAPE     H2X      HAL2     0.900000E-01   1.00800           0
     14315 MEMB     123      SAPE     H2Y      HAL2     0.900000E-01   1.00800           0
     14316 MEMB     123      SAPE     C23      CTL2    -0.180000       12.0110           0
     14317 MEMB     123      SAPE     H3R      HAL2     0.900000E-01   1.00800           0
     14318 MEMB     123      SAPE     H3S      HAL2     0.900000E-01   1.00800           0
     14319 MEMB     123      SAPE     C24      CTL2    -0.180000       12.0110           0
     14320 MEMB     123      SAPE     H4R      HAL2     0.900000E-01   1.00800           0
     14321 MEMB     123      SAPE     H4S      HAL2     0.900000E-01   1.00800           0
     14322 MEMB     123      SAPE     C25      CEL1    -0.150000       12.0110           0
     14323 MEMB     123      SAPE     H5R      HEL1     0.150000       1.00800           0
     14324 MEMB     123      SAPE     C26      CEL1    -0.150000       12.0110           0
     14325 MEMB     123      SAPE     H6R      HEL1     0.150000       1.00800           0
     14326 MEMB     123      SAPE     C27      CTL2    -0.180000       12.0110           0
     14327 MEMB     123      SAPE     H7R      HAL2     0.900000E-01   1.00800           0
     14328 MEMB     123      SAPE     H7S      HAL2     0.900000E-01   1.00800           0
     14329 MEMB     123      SAPE     C28      CEL1    -0.150000       12.0110           0
     14330 MEMB     123      SAPE     H8R      HEL1     0.150000       1.00800           0
     14331 MEMB     123      SAPE     C29      CEL1    -0.150000       12.0110           0
     14332 MEMB     123      SAPE     H9R      HEL1     0.150000       1.00800           0
     14333 MEMB     123      SAPE     C210     CTL2    -0.180000       12.0110           0
     14334 MEMB     123      SAPE     H10R     HAL2     0.900000E-01   1.00800           0
     14335 MEMB     123      SAPE     H10S     HAL2     0.900000E-01   1.00800           0
     14336 MEMB     123      SAPE     C211     CEL1    -0.150000       12.0110           0
     14337 MEMB     123      SAPE     H11R     HEL1     0.150000       1.00800           0
     14338 MEMB     123      SAPE     C212     CEL1    -0.150000       12.0110           0
     14339 MEMB     123      SAPE     H12R     HEL1     0.150000       1.00800           0
     14340 MEMB     123      SAPE     C213     CTL2    -0.180000       12.0110           0
     14341 MEMB     123      SAPE     H13R     HAL2     0.900000E-01   1.00800           0
     14342 MEMB     123      SAPE     H13S     HAL2     0.900000E-01   1.00800           0
     14343 MEMB     123      SAPE     C214     CEL1    -0.150000       12.0110           0
     14344 MEMB     123      SAPE     H14R     HEL1     0.150000       1.00800           0
     14345 MEMB     123      SAPE     C215     CEL1    -0.150000       12.0110           0
     14346 MEMB     123      SAPE     H15R     HEL1     0.150000       1.00800           0
     14347 MEMB     123      SAPE     C216     CTL2    -0.180000       12.0110           0
     14348 MEMB     123      SAPE     H16R     HAL2     0.900000E-01   1.00800           0
     14349 MEMB     123      SAPE     H16S     HAL2     0.900000E-01   1.00800           0
     14350 MEMB     123      SAPE     C217     CTL2    -0.180000       12.0110           0
     14351 MEMB     123      SAPE     H17R     HAL2     0.900000E-01   1.00800           0
     14352 MEMB     123      SAPE     H17S     HAL2     0.900000E-01   1.00800           0
     14353 MEMB     123      SAPE     C218     CTL2    -0.180000       12.0110           0
     14354 MEMB     123      SAPE     H18R     HAL2     0.900000E-01   1.00800           0
     14355 MEMB     123      SAPE     H18S     HAL2     0.900000E-01   1.00800           0
     14356 MEMB     123      SAPE     C219     CTL2    -0.180000       12.0110           0
     14357 MEMB     123      SAPE     H19R     HAL2     0.900000E-01   1.00800           0
     14358 MEMB     123      SAPE     H19S     HAL2     0.900000E-01   1.00800           0
     14359 MEMB     123      SAPE     C220     CTL3    -0.270000       12.0110           0
     14360 MEMB     123      SAPE     H20R     HAL3     0.900000E-01   1.00800           0
     14361 MEMB     123      SAPE     H20S     HAL3     0.900000E-01   1.00800           0
     14362 MEMB     123      SAPE     H20T     HAL3     0.900000E-01   1.00800           0
     14363 MEMB     123      SAPE     C33      CTL2    -0.180000       12.0110           0
     14364 MEMB     123      SAPE     H3X      HAL2     0.900000E-01   1.00800           0
     14365 MEMB     123      SAPE     H3Y      HAL2     0.900000E-01   1.00800           0
     14366 MEMB     123      SAPE     C34      CTL2    -0.180000       12.0110           0
     14367 MEMB     123      SAPE     H4X      HAL2     0.900000E-01   1.00800           0
     14368 MEMB     123      SAPE     H4Y      HAL2     0.900000E-01   1.00800           0
     14369 MEMB     123      SAPE     C35      CTL2    -0.180000       12.0110           0
     14370 MEMB     123      SAPE     H5X      HAL2     0.900000E-01   1.00800           0
     14371 MEMB     123      SAPE     H5Y      HAL2     0.900000E-01   1.00800           0
     14372 MEMB     123      SAPE     C36      CTL2    -0.180000       12.0110           0
     14373 MEMB     123      SAPE     H6X      HAL2     0.900000E-01   1.00800           0
     14374 MEMB     123      SAPE     H6Y      HAL2     0.900000E-01   1.00800           0
     14375 MEMB     123      SAPE     C37      CTL2    -0.180000       12.0110           0
     14376 MEMB     123      SAPE     H7X      HAL2     0.900000E-01   1.00800           0
     14377 MEMB     123      SAPE     H7Y      HAL2     0.900000E-01   1.00800           0
     14378 MEMB     123      SAPE     C38      CTL2    -0.180000       12.0110           0
     14379 MEMB     123      SAPE     H8X      HAL2     0.900000E-01   1.00800           0
     14380 MEMB     123      SAPE     H8Y      HAL2     0.900000E-01   1.00800           0
     14381 MEMB     123      SAPE     C39      CTL2    -0.180000       12.0110           0
     14382 MEMB     123      SAPE     H9X      HAL2     0.900000E-01   1.00800           0
     14383 MEMB     123      SAPE     H9Y      HAL2     0.900000E-01   1.00800           0
     14384 MEMB     123      SAPE     C310     CTL2    -0.180000       12.0110           0
     14385 MEMB     123      SAPE     H10X     HAL2     0.900000E-01   1.00800           0
     14386 MEMB     123      SAPE     H10Y     HAL2     0.900000E-01   1.00800           0
     14387 MEMB     123      SAPE     C311     CTL2    -0.180000       12.0110           0
     14388 MEMB     123      SAPE     H11X     HAL2     0.900000E-01   1.00800           0
     14389 MEMB     123      SAPE     H11Y     HAL2     0.900000E-01   1.00800           0
     14390 MEMB     123      SAPE     C312     CTL2    -0.180000       12.0110           0
     14391 MEMB     123      SAPE     H12X     HAL2     0.900000E-01   1.00800           0
     14392 MEMB     123      SAPE     H12Y     HAL2     0.900000E-01   1.00800           0
     14393 MEMB     123      SAPE     C313     CTL2    -0.180000       12.0110           0
     14394 MEMB     123      SAPE     H13X     HAL2     0.900000E-01   1.00800           0
     14395 MEMB     123      SAPE     H13Y     HAL2     0.900000E-01   1.00800           0
     14396 MEMB     123      SAPE     C314     CTL2    -0.180000       12.0110           0
     14397 MEMB     123      SAPE     H14X     HAL2     0.900000E-01   1.00800           0
     14398 MEMB     123      SAPE     H14Y     HAL2     0.900000E-01   1.00800           0
     14399 MEMB     123      SAPE     C315     CTL2    -0.180000       12.0110           0
     14400 MEMB     123      SAPE     H15X     HAL2     0.900000E-01   1.00800           0
     14401 MEMB     123      SAPE     H15Y     HAL2     0.900000E-01   1.00800           0
     14402 MEMB     123      SAPE     C316     CTL2    -0.180000       12.0110           0
     14403 MEMB     123      SAPE     H16X     HAL2     0.900000E-01   1.00800           0
     14404 MEMB     123      SAPE     H16Y     HAL2     0.900000E-01   1.00800           0
     14405 MEMB     123      SAPE     C317     CTL2    -0.180000       12.0110           0
     14406 MEMB     123      SAPE     H17X     HAL2     0.900000E-01   1.00800           0
     14407 MEMB     123      SAPE     H17Y     HAL2     0.900000E-01   1.00800           0
     14408 MEMB     123      SAPE     C318     CTL3    -0.270000       12.0110           0
     14409 MEMB     123      SAPE     H18X     HAL3     0.900000E-01   1.00800           0
     14410 MEMB     123      SAPE     H18Y     HAL3     0.900000E-01   1.00800           0
     14411 MEMB     123      SAPE     H18Z     HAL3     0.900000E-01   1.00800           0
     14412 MEMB     124      SLPC     N        NTL     -0.600000       14.0070           0
     14413 MEMB     124      SLPC     C13      CTL5    -0.350000       12.0110           0
     14414 MEMB     124      SLPC     H13A     HL       0.250000       1.00800           0
     14415 MEMB     124      SLPC     H13B     HL       0.250000       1.00800           0
     14416 MEMB     124      SLPC     H13C     HL       0.250000       1.00800           0
     14417 MEMB     124      SLPC     C14      CTL5    -0.350000       12.0110           0
     14418 MEMB     124      SLPC     H14A     HL       0.250000       1.00800           0
     14419 MEMB     124      SLPC     H14B     HL       0.250000       1.00800           0
     14420 MEMB     124      SLPC     H14C     HL       0.250000       1.00800           0
     14421 MEMB     124      SLPC     C15      CTL5    -0.350000       12.0110           0
     14422 MEMB     124      SLPC     H15A     HL       0.250000       1.00800           0
     14423 MEMB     124      SLPC     H15B     HL       0.250000       1.00800           0
     14424 MEMB     124      SLPC     H15C     HL       0.250000       1.00800           0
     14425 MEMB     124      SLPC     C12      CTL2    -0.100000       12.0110           0
     14426 MEMB     124      SLPC     H12A     HL       0.250000       1.00800           0
     14427 MEMB     124      SLPC     H12B     HL       0.250000       1.00800           0
     14428 MEMB     124      SLPC     C11      CTL2    -0.800000E-01   12.0110           0
     14429 MEMB     124      SLPC     H11A     HAL2     0.900000E-01   1.00800           0
     14430 MEMB     124      SLPC     H11B     HAL2     0.900000E-01   1.00800           0
     14431 MEMB     124      SLPC     P        PL        1.50000       30.9740           0
     14432 MEMB     124      SLPC     O13      O2L     -0.780000       15.9994           0
     14433 MEMB     124      SLPC     O14      O2L     -0.780000       15.9994           0
     14434 MEMB     124      SLPC     O12      OSLP    -0.570000       15.9994           0
     14435 MEMB     124      SLPC     O11      OSLP    -0.570000       15.9994           0
     14436 MEMB     124      SLPC     C1       CTL2    -0.800000E-01   12.0110           0
     14437 MEMB     124      SLPC     HA       HAL2     0.900000E-01   1.00800           0
     14438 MEMB     124      SLPC     HB       HAL2     0.900000E-01   1.00800           0
     14439 MEMB     124      SLPC     C2       CTL1     0.170000       12.0110           0
     14440 MEMB     124      SLPC     HS       HAL1     0.900000E-01   1.00800           0
     14441 MEMB     124      SLPC     O21      OSL     -0.490000       15.9994           0
     14442 MEMB     124      SLPC     C21      CL       0.900000       12.0110           0
     14443 MEMB     124      SLPC     O22      OBL     -0.630000       15.9994           0
     14444 MEMB     124      SLPC     C22      CTL2    -0.220000       12.0110           0
     14445 MEMB     124      SLPC     H2R      HAL2     0.900000E-01   1.00800           0
     14446 MEMB     124      SLPC     H2S      HAL2     0.900000E-01   1.00800           0
     14447 MEMB     124      SLPC     C3       CTL2     0.800000E-01   12.0110           0
     14448 MEMB     124      SLPC     HX       HAL2     0.900000E-01   1.00800           0
     14449 MEMB     124      SLPC     HY       HAL2     0.900000E-01   1.00800           0
     14450 MEMB     124      SLPC     O31      OSL     -0.490000       15.9994           0
     14451 MEMB     124      SLPC     C31      CL       0.900000       12.0110           0
     14452 MEMB     124      SLPC     O32      OBL     -0.630000       15.9994           0
     14453 MEMB     124      SLPC     C32      CTL2    -0.220000       12.0110           0
     14454 MEMB     124      SLPC     H2X      HAL2     0.900000E-01   1.00800           0
     14455 MEMB     124      SLPC     H2Y      HAL2     0.900000E-01   1.00800           0
     14456 MEMB     124      SLPC     C23      CTL2    -0.180000       12.0110           0
     14457 MEMB     124      SLPC     H3R      HAL2     0.900000E-01   1.00800           0
     14458 MEMB     124      SLPC     H3S      HAL2     0.900000E-01   1.00800           0
     14459 MEMB     124      SLPC     C24      CTL2    -0.180000       12.0110           0
     14460 MEMB     124      SLPC     H4R      HAL2     0.900000E-01   1.00800           0
     14461 MEMB     124      SLPC     H4S      HAL2     0.900000E-01   1.00800           0
     14462 MEMB     124      SLPC     C25      CTL2    -0.180000       12.0110           0
     14463 MEMB     124      SLPC     H5R      HAL2     0.900000E-01   1.00800           0
     14464 MEMB     124      SLPC     H5S      HAL2     0.900000E-01   1.00800           0
     14465 MEMB     124      SLPC     C26      CTL2    -0.180000       12.0110           0
     14466 MEMB     124      SLPC     H6R      HAL2     0.900000E-01   1.00800           0
     14467 MEMB     124      SLPC     H6S      HAL2     0.900000E-01   1.00800           0
     14468 MEMB     124      SLPC     C27      CTL2    -0.180000       12.0110           0
     14469 MEMB     124      SLPC     H7R      HAL2     0.900000E-01   1.00800           0
     14470 MEMB     124      SLPC     H7S      HAL2     0.900000E-01   1.00800           0
     14471 MEMB     124      SLPC     C28      CTL2    -0.180000       12.0110           0
     14472 MEMB     124      SLPC     H8R      HAL2     0.900000E-01   1.00800           0
     14473 MEMB     124      SLPC     H8S      HAL2     0.900000E-01   1.00800           0
     14474 MEMB     124      SLPC     C29      CEL1    -0.150000       12.0110           0
     14475 MEMB     124      SLPC     H9R      HEL1     0.150000       1.00800           0
     14476 MEMB     124      SLPC     C210     CEL1    -0.150000       12.0110           0
     14477 MEMB     124      SLPC     H10R     HEL1     0.150000       1.00800           0
     14478 MEMB     124      SLPC     C211     CTL2    -0.180000       12.0110           0
     14479 MEMB     124      SLPC     H11R     HAL2     0.900000E-01   1.00800           0
     14480 MEMB     124      SLPC     H11S     HAL2     0.900000E-01   1.00800           0
     14481 MEMB     124      SLPC     C212     CEL1    -0.150000       12.0110           0
     14482 MEMB     124      SLPC     H12R     HEL1     0.150000       1.00800           0
     14483 MEMB     124      SLPC     C213     CEL1    -0.150000       12.0110           0
     14484 MEMB     124      SLPC     H13R     HEL1     0.150000       1.00800           0
     14485 MEMB     124      SLPC     C214     CTL2    -0.180000       12.0110           0
     14486 MEMB     124      SLPC     H14R     HAL2     0.900000E-01   1.00800           0
     14487 MEMB     124      SLPC     H14S     HAL2     0.900000E-01   1.00800           0
     14488 MEMB     124      SLPC     C215     CTL2    -0.180000       12.0110           0
     14489 MEMB     124      SLPC     H15R     HAL2     0.900000E-01   1.00800           0
     14490 MEMB     124      SLPC     H15S     HAL2     0.900000E-01   1.00800           0
     14491 MEMB     124      SLPC     C216     CTL2    -0.180000       12.0110           0
     14492 MEMB     124      SLPC     H16R     HAL2     0.900000E-01   1.00800           0
     14493 MEMB     124      SLPC     H16S     HAL2     0.900000E-01   1.00800           0
     14494 MEMB     124      SLPC     C217     CTL2    -0.180000       12.0110           0
     14495 MEMB     124      SLPC     H17R     HAL2     0.900000E-01   1.00800           0
     14496 MEMB     124      SLPC     H17S     HAL2     0.900000E-01   1.00800           0
     14497 MEMB     124      SLPC     C218     CTL3    -0.270000       12.0110           0
     14498 MEMB     124      SLPC     H18R     HAL3     0.900000E-01   1.00800           0
     14499 MEMB     124      SLPC     H18S     HAL3     0.900000E-01   1.00800           0
     14500 MEMB     124      SLPC     H18T     HAL3     0.900000E-01   1.00800           0
     14501 MEMB     124      SLPC     C33      CTL2    -0.180000       12.0110           0
     14502 MEMB     124      SLPC     H3X      HAL2     0.900000E-01   1.00800           0
     14503 MEMB     124      SLPC     H3Y      HAL2     0.900000E-01   1.00800           0
     14504 MEMB     124      SLPC     C34      CTL2    -0.180000       12.0110           0
     14505 MEMB     124      SLPC     H4X      HAL2     0.900000E-01   1.00800           0
     14506 MEMB     124      SLPC     H4Y      HAL2     0.900000E-01   1.00800           0
     14507 MEMB     124      SLPC     C35      CTL2    -0.180000       12.0110           0
     14508 MEMB     124      SLPC     H5X      HAL2     0.900000E-01   1.00800           0
     14509 MEMB     124      SLPC     H5Y      HAL2     0.900000E-01   1.00800           0
     14510 MEMB     124      SLPC     C36      CTL2    -0.180000       12.0110           0
     14511 MEMB     124      SLPC     H6X      HAL2     0.900000E-01   1.00800           0
     14512 MEMB     124      SLPC     H6Y      HAL2     0.900000E-01   1.00800           0
     14513 MEMB     124      SLPC     C37      CTL2    -0.180000       12.0110           0
     14514 MEMB     124      SLPC     H7X      HAL2     0.900000E-01   1.00800           0
     14515 MEMB     124      SLPC     H7Y      HAL2     0.900000E-01   1.00800           0
     14516 MEMB     124      SLPC     C38      CTL2    -0.180000       12.0110           0
     14517 MEMB     124      SLPC     H8X      HAL2     0.900000E-01   1.00800           0
     14518 MEMB     124      SLPC     H8Y      HAL2     0.900000E-01   1.00800           0
     14519 MEMB     124      SLPC     C39      CTL2    -0.180000       12.0110           0
     14520 MEMB     124      SLPC     H9X      HAL2     0.900000E-01   1.00800           0
     14521 MEMB     124      SLPC     H9Y      HAL2     0.900000E-01   1.00800           0
     14522 MEMB     124      SLPC     C310     CTL2    -0.180000       12.0110           0
     14523 MEMB     124      SLPC     H10X     HAL2     0.900000E-01   1.00800           0
     14524 MEMB     124      SLPC     H10Y     HAL2     0.900000E-01   1.00800           0
     14525 MEMB     124      SLPC     C311     CTL2    -0.180000       12.0110           0
     14526 MEMB     124      SLPC     H11X     HAL2     0.900000E-01   1.00800           0
     14527 MEMB     124      SLPC     H11Y     HAL2     0.900000E-01   1.00800           0
     14528 MEMB     124      SLPC     C312     CTL2    -0.180000       12.0110           0
     14529 MEMB     124      SLPC     H12X     HAL2     0.900000E-01   1.00800           0
     14530 MEMB     124      SLPC     H12Y     HAL2     0.900000E-01   1.00800           0
     14531 MEMB     124      SLPC     C313     CTL2    -0.180000       12.0110           0
     14532 MEMB     124      SLPC     H13X     HAL2     0.900000E-01   1.00800           0
     14533 MEMB     124      SLPC     H13Y     HAL2     0.900000E-01   1.00800           0
     14534 MEMB     124      SLPC     C314     CTL2    -0.180000       12.0110           0
     14535 MEMB     124      SLPC     H14X     HAL2     0.900000E-01   1.00800           0
     14536 MEMB     124      SLPC     H14Y     HAL2     0.900000E-01   1.00800           0
     14537 MEMB     124      SLPC     C315     CTL2    -0.180000       12.0110           0
     14538 MEMB     124      SLPC     H15X     HAL2     0.900000E-01   1.00800           0
     14539 MEMB     124      SLPC     H15Y     HAL2     0.900000E-01   1.00800           0
     14540 MEMB     124      SLPC     C316     CTL2    -0.180000       12.0110           0
     14541 MEMB     124      SLPC     H16X     HAL2     0.900000E-01   1.00800           0
     14542 MEMB     124      SLPC     H16Y     HAL2     0.900000E-01   1.00800           0
     14543 MEMB     124      SLPC     C317     CTL2    -0.180000       12.0110           0
     14544 MEMB     124      SLPC     H17X     HAL2     0.900000E-01   1.00800           0
     14545 MEMB     124      SLPC     H17Y     HAL2     0.900000E-01   1.00800           0
     14546 MEMB     124      SLPC     C318     CTL3    -0.270000       12.0110           0
     14547 MEMB     124      SLPC     H18X     HAL3     0.900000E-01   1.00800           0
     14548 MEMB     124      SLPC     H18Y     HAL3     0.900000E-01   1.00800           0
     14549 MEMB     124      SLPC     H18Z     HAL3     0.900000E-01   1.00800           0
     14550 MEMB     125      OSM      N        NTL     -0.600000       14.0070           0
     14551 MEMB     125      OSM      C15      CTL5    -0.350000       12.0110           0
     14552 MEMB     125      OSM      H15A     HL       0.250000       1.00800           0
     14553 MEMB     125      OSM      H15B     HL       0.250000       1.00800           0
     14554 MEMB     125      OSM      H15C     HL       0.250000       1.00800           0
     14555 MEMB     125      OSM      C14      CTL5    -0.350000       12.0110           0
     14556 MEMB     125      OSM      H14A     HL       0.250000       1.00800           0
     14557 MEMB     125      OSM      H14B     HL       0.250000       1.00800           0
     14558 MEMB     125      OSM      H14C     HL       0.250000       1.00800           0
     14559 MEMB     125      OSM      C13      CTL5    -0.350000       12.0110           0
     14560 MEMB     125      OSM      H13A     HL       0.250000       1.00800           0
     14561 MEMB     125      OSM      H13B     HL       0.250000       1.00800           0
     14562 MEMB     125      OSM      H13C     HL       0.250000       1.00800           0
     14563 MEMB     125      OSM      C12      CTL2    -0.100000       12.0110           0
     14564 MEMB     125      OSM      H12A     HL       0.250000       1.00800           0
     14565 MEMB     125      OSM      H12B     HL       0.250000       1.00800           0
     14566 MEMB     125      OSM      C11      CTL2    -0.800000E-01   12.0110           0
     14567 MEMB     125      OSM      H11A     HAL2     0.900000E-01   1.00800           0
     14568 MEMB     125      OSM      H11B     HAL2     0.900000E-01   1.00800           0
     14569 MEMB     125      OSM      P        PL        1.50000       30.9740           0
     14570 MEMB     125      OSM      O13      O2L     -0.780000       15.9994           0
     14571 MEMB     125      OSM      O14      O2L     -0.780000       15.9994           0
     14572 MEMB     125      OSM      O11      OSLP    -0.570000       15.9994           0
     14573 MEMB     125      OSM      O12      OSLP    -0.570000       15.9994           0
     14574 MEMB     125      OSM      C1S      CTL2    -0.800000E-01   12.0110           0
     14575 MEMB     125      OSM      H1S      HAL2     0.900000E-01   1.00800           0
     14576 MEMB     125      OSM      H1T      HAL2     0.900000E-01   1.00800           0
     14577 MEMB     125      OSM      NF       NHL     -0.700000       14.0070           0
     14578 MEMB     125      OSM      HNF      H        0.350000       1.00800           0
     14579 MEMB     125      OSM      C2S      CTL1     0.300000       12.0110           0
     14580 MEMB     125      OSM      H2S      HAL1     0.500000E-01   1.00800           0
     14581 MEMB     125      OSM      C3S      CTO1     0.500000       12.0110           0
     14582 MEMB     125      OSM      H3S      HAL1    -0.110000       1.00800           0
     14583 MEMB     125      OSM      O3       OHL     -0.690000       15.9994           0
     14584 MEMB     125      OSM      HO3      HOL      0.300000       1.00800           0
     14585 MEMB     125      OSM      C4S      CEL3    -0.150000       12.0110           0
     14586 MEMB     125      OSM      H4S      HEL1     0.150000       1.00800           0
     14587 MEMB     125      OSM      C5S      CEL3    -0.150000       12.0110           0
     14588 MEMB     125      OSM      H5S      HEL1     0.150000       1.00800           0
     14589 MEMB     125      OSM      C6S      CTL2    -0.180000       12.0110           0
     14590 MEMB     125      OSM      H6S      HAL2     0.900000E-01   1.00800           0
     14591 MEMB     125      OSM      H6T      HAL2     0.900000E-01   1.00800           0
     14592 MEMB     125      OSM      C7S      CTL2    -0.180000       12.0110           0
     14593 MEMB     125      OSM      H7S      HAL2     0.900000E-01   1.00800           0
     14594 MEMB     125      OSM      H7T      HAL2     0.900000E-01   1.00800           0
     14595 MEMB     125      OSM      C8S      CTL2    -0.180000       12.0110           0
     14596 MEMB     125      OSM      H8S      HAL2     0.900000E-01   1.00800           0
     14597 MEMB     125      OSM      H8T      HAL2     0.900000E-01   1.00800           0
     14598 MEMB     125      OSM      C9S      CTL2    -0.180000       12.0110           0
     14599 MEMB     125      OSM      H9S      HAL2     0.900000E-01   1.00800           0
     14600 MEMB     125      OSM      H9T      HAL2     0.900000E-01   1.00800           0
     14601 MEMB     125      OSM      C10S     CTL2    -0.180000       12.0110           0
     14602 MEMB     125      OSM      H10S     HAL2     0.900000E-01   1.00800           0
     14603 MEMB     125      OSM      H10T     HAL2     0.900000E-01   1.00800           0
     14604 MEMB     125      OSM      C11S     CTL2    -0.180000       12.0110           0
     14605 MEMB     125      OSM      H11S     HAL2     0.900000E-01   1.00800           0
     14606 MEMB     125      OSM      H11T     HAL2     0.900000E-01   1.00800           0
     14607 MEMB     125      OSM      C12S     CTL2    -0.180000       12.0110           0
     14608 MEMB     125      OSM      H12S     HAL2     0.900000E-01   1.00800           0
     14609 MEMB     125      OSM      H12T     HAL2     0.900000E-01   1.00800           0
     14610 MEMB     125      OSM      C13S     CTL2    -0.180000       12.0110           0
     14611 MEMB     125      OSM      H13S     HAL2     0.900000E-01   1.00800           0
     14612 MEMB     125      OSM      H13T     HAL2     0.900000E-01   1.00800           0
     14613 MEMB     125      OSM      C14S     CTL2    -0.180000       12.0110           0
     14614 MEMB     125      OSM      H14S     HAL2     0.900000E-01   1.00800           0
     14615 MEMB     125      OSM      H14T     HAL2     0.900000E-01   1.00800           0
     14616 MEMB     125      OSM      C15S     CTL2    -0.180000       12.0110           0
     14617 MEMB     125      OSM      H15S     HAL2     0.900000E-01   1.00800           0
     14618 MEMB     125      OSM      H15T     HAL2     0.900000E-01   1.00800           0
     14619 MEMB     125      OSM      C16S     CTL2    -0.180000       12.0110           0
     14620 MEMB     125      OSM      H16S     HAL2     0.900000E-01   1.00800           0
     14621 MEMB     125      OSM      H16T     HAL2     0.900000E-01   1.00800           0
     14622 MEMB     125      OSM      C17S     CTL2    -0.180000       12.0110           0
     14623 MEMB     125      OSM      H17S     HAL2     0.900000E-01   1.00800           0
     14624 MEMB     125      OSM      H17T     HAL2     0.900000E-01   1.00800           0
     14625 MEMB     125      OSM      C18S     CTL3    -0.270000       12.0110           0
     14626 MEMB     125      OSM      H18S     HAL3     0.900000E-01   1.00800           0
     14627 MEMB     125      OSM      H18T     HAL3     0.900000E-01   1.00800           0
     14628 MEMB     125      OSM      H18U     HAL3     0.900000E-01   1.00800           0
     14629 MEMB     125      OSM      C1F      C        0.550000       12.0110           0
     14630 MEMB     125      OSM      OF       O       -0.600000       15.9994           0
     14631 MEMB     125      OSM      C2F      CTL2    -0.700000E-01   12.0110           0
     14632 MEMB     125      OSM      H2F      HAL2     0.600000E-01   1.00800           0
     14633 MEMB     125      OSM      H2G      HAL2     0.600000E-01   1.00800           0
     14634 MEMB     125      OSM      C3F      CTL2    -0.180000       12.0110           0
     14635 MEMB     125      OSM      H3F      HAL2     0.900000E-01   1.00800           0
     14636 MEMB     125      OSM      H3G      HAL2     0.900000E-01   1.00800           0
     14637 MEMB     125      OSM      C4F      CTL2    -0.180000       12.0110           0
     14638 MEMB     125      OSM      H4F      HAL2     0.900000E-01   1.00800           0
     14639 MEMB     125      OSM      H4G      HAL2     0.900000E-01   1.00800           0
     14640 MEMB     125      OSM      C5F      CTL2    -0.180000       12.0110           0
     14641 MEMB     125      OSM      H5F      HAL2     0.900000E-01   1.00800           0
     14642 MEMB     125      OSM      H5G      HAL2     0.900000E-01   1.00800           0
     14643 MEMB     125      OSM      C6F      CTL2    -0.180000       12.0110           0
     14644 MEMB     125      OSM      H6F      HAL2     0.900000E-01   1.00800           0
     14645 MEMB     125      OSM      H6G      HAL2     0.900000E-01   1.00800           0
     14646 MEMB     125      OSM      C7F      CTL2    -0.180000       12.0110           0
     14647 MEMB     125      OSM      H7F      HAL2     0.900000E-01   1.00800           0
     14648 MEMB     125      OSM      H7G      HAL2     0.900000E-01   1.00800           0
     14649 MEMB     125      OSM      C8F      CTL2    -0.180000       12.0110           0
     14650 MEMB     125      OSM      H8F      HAL2     0.900000E-01   1.00800           0
     14651 MEMB     125      OSM      H8G      HAL2     0.900000E-01   1.00800           0
     14652 MEMB     125      OSM      C9F      CEL1    -0.150000       12.0110           0
     14653 MEMB     125      OSM      H9F      HEL1     0.150000       1.00800           0
     14654 MEMB     125      OSM      C10F     CEL1    -0.150000       12.0110           0
     14655 MEMB     125      OSM      H10F     HEL1     0.150000       1.00800           0
     14656 MEMB     125      OSM      C11F     CTL2    -0.180000       12.0110           0
     14657 MEMB     125      OSM      H11F     HAL2     0.900000E-01   1.00800           0
     14658 MEMB     125      OSM      H11G     HAL2     0.900000E-01   1.00800           0
     14659 MEMB     125      OSM      C12F     CTL2    -0.180000       12.0110           0
     14660 MEMB     125      OSM      H12F     HAL2     0.900000E-01   1.00800           0
     14661 MEMB     125      OSM      H12G     HAL2     0.900000E-01   1.00800           0
     14662 MEMB     125      OSM      C13F     CTL2    -0.180000       12.0110           0
     14663 MEMB     125      OSM      H13F     HAL2     0.900000E-01   1.00800           0
     14664 MEMB     125      OSM      H13G     HAL2     0.900000E-01   1.00800           0
     14665 MEMB     125      OSM      C14F     CTL2    -0.180000       12.0110           0
     14666 MEMB     125      OSM      H14F     HAL2     0.900000E-01   1.00800           0
     14667 MEMB     125      OSM      H14G     HAL2     0.900000E-01   1.00800           0
     14668 MEMB     125      OSM      C15F     CTL2    -0.180000       12.0110           0
     14669 MEMB     125      OSM      H15F     HAL2     0.900000E-01   1.00800           0
     14670 MEMB     125      OSM      H15G     HAL2     0.900000E-01   1.00800           0
     14671 MEMB     125      OSM      C16F     CTL2    -0.180000       12.0110           0
     14672 MEMB     125      OSM      H16F     HAL2     0.900000E-01   1.00800           0
     14673 MEMB     125      OSM      H16G     HAL2     0.900000E-01   1.00800           0
     14674 MEMB     125      OSM      C17F     CTL2    -0.180000       12.0110           0
     14675 MEMB     125      OSM      H17F     HAL2     0.900000E-01   1.00800           0
     14676 MEMB     125      OSM      H17G     HAL2     0.900000E-01   1.00800           0
     14677 MEMB     125      OSM      C18F     CTL3    -0.270000       12.0110           0
     14678 MEMB     125      OSM      H18F     HAL3     0.900000E-01   1.00800           0
     14679 MEMB     125      OSM      H18G     HAL3     0.900000E-01   1.00800           0
     14680 MEMB     125      OSM      H18H     HAL3     0.900000E-01   1.00800           0
     14681 MEMB     126      OSM      N        NTL     -0.600000       14.0070           0
     14682 MEMB     126      OSM      C15      CTL5    -0.350000       12.0110           0
     14683 MEMB     126      OSM      H15A     HL       0.250000       1.00800           0
     14684 MEMB     126      OSM      H15B     HL       0.250000       1.00800           0
     14685 MEMB     126      OSM      H15C     HL       0.250000       1.00800           0
     14686 MEMB     126      OSM      C14      CTL5    -0.350000       12.0110           0
     14687 MEMB     126      OSM      H14A     HL       0.250000       1.00800           0
     14688 MEMB     126      OSM      H14B     HL       0.250000       1.00800           0
     14689 MEMB     126      OSM      H14C     HL       0.250000       1.00800           0
     14690 MEMB     126      OSM      C13      CTL5    -0.350000       12.0110           0
     14691 MEMB     126      OSM      H13A     HL       0.250000       1.00800           0
     14692 MEMB     126      OSM      H13B     HL       0.250000       1.00800           0
     14693 MEMB     126      OSM      H13C     HL       0.250000       1.00800           0
     14694 MEMB     126      OSM      C12      CTL2    -0.100000       12.0110           0
     14695 MEMB     126      OSM      H12A     HL       0.250000       1.00800           0
     14696 MEMB     126      OSM      H12B     HL       0.250000       1.00800           0
     14697 MEMB     126      OSM      C11      CTL2    -0.800000E-01   12.0110           0
     14698 MEMB     126      OSM      H11A     HAL2     0.900000E-01   1.00800           0
     14699 MEMB     126      OSM      H11B     HAL2     0.900000E-01   1.00800           0
     14700 MEMB     126      OSM      P        PL        1.50000       30.9740           0
     14701 MEMB     126      OSM      O13      O2L     -0.780000       15.9994           0
     14702 MEMB     126      OSM      O14      O2L     -0.780000       15.9994           0
     14703 MEMB     126      OSM      O11      OSLP    -0.570000       15.9994           0
     14704 MEMB     126      OSM      O12      OSLP    -0.570000       15.9994           0
     14705 MEMB     126      OSM      C1S      CTL2    -0.800000E-01   12.0110           0
     14706 MEMB     126      OSM      H1S      HAL2     0.900000E-01   1.00800           0
     14707 MEMB     126      OSM      H1T      HAL2     0.900000E-01   1.00800           0
     14708 MEMB     126      OSM      NF       NHL     -0.700000       14.0070           0
     14709 MEMB     126      OSM      HNF      H        0.350000       1.00800           0
     14710 MEMB     126      OSM      C2S      CTL1     0.300000       12.0110           0
     14711 MEMB     126      OSM      H2S      HAL1     0.500000E-01   1.00800           0
     14712 MEMB     126      OSM      C3S      CTO1     0.500000       12.0110           0
     14713 MEMB     126      OSM      H3S      HAL1    -0.110000       1.00800           0
     14714 MEMB     126      OSM      O3       OHL     -0.690000       15.9994           0
     14715 MEMB     126      OSM      HO3      HOL      0.300000       1.00800           0
     14716 MEMB     126      OSM      C4S      CEL3    -0.150000       12.0110           0
     14717 MEMB     126      OSM      H4S      HEL1     0.150000       1.00800           0
     14718 MEMB     126      OSM      C5S      CEL3    -0.150000       12.0110           0
     14719 MEMB     126      OSM      H5S      HEL1     0.150000       1.00800           0
     14720 MEMB     126      OSM      C6S      CTL2    -0.180000       12.0110           0
     14721 MEMB     126      OSM      H6S      HAL2     0.900000E-01   1.00800           0
     14722 MEMB     126      OSM      H6T      HAL2     0.900000E-01   1.00800           0
     14723 MEMB     126      OSM      C7S      CTL2    -0.180000       12.0110           0
     14724 MEMB     126      OSM      H7S      HAL2     0.900000E-01   1.00800           0
     14725 MEMB     126      OSM      H7T      HAL2     0.900000E-01   1.00800           0
     14726 MEMB     126      OSM      C8S      CTL2    -0.180000       12.0110           0
     14727 MEMB     126      OSM      H8S      HAL2     0.900000E-01   1.00800           0
     14728 MEMB     126      OSM      H8T      HAL2     0.900000E-01   1.00800           0
     14729 MEMB     126      OSM      C9S      CTL2    -0.180000       12.0110           0
     14730 MEMB     126      OSM      H9S      HAL2     0.900000E-01   1.00800           0
     14731 MEMB     126      OSM      H9T      HAL2     0.900000E-01   1.00800           0
     14732 MEMB     126      OSM      C10S     CTL2    -0.180000       12.0110           0
     14733 MEMB     126      OSM      H10S     HAL2     0.900000E-01   1.00800           0
     14734 MEMB     126      OSM      H10T     HAL2     0.900000E-01   1.00800           0
     14735 MEMB     126      OSM      C11S     CTL2    -0.180000       12.0110           0
     14736 MEMB     126      OSM      H11S     HAL2     0.900000E-01   1.00800           0
     14737 MEMB     126      OSM      H11T     HAL2     0.900000E-01   1.00800           0
     14738 MEMB     126      OSM      C12S     CTL2    -0.180000       12.0110           0
     14739 MEMB     126      OSM      H12S     HAL2     0.900000E-01   1.00800           0
     14740 MEMB     126      OSM      H12T     HAL2     0.900000E-01   1.00800           0
     14741 MEMB     126      OSM      C13S     CTL2    -0.180000       12.0110           0
     14742 MEMB     126      OSM      H13S     HAL2     0.900000E-01   1.00800           0
     14743 MEMB     126      OSM      H13T     HAL2     0.900000E-01   1.00800           0
     14744 MEMB     126      OSM      C14S     CTL2    -0.180000       12.0110           0
     14745 MEMB     126      OSM      H14S     HAL2     0.900000E-01   1.00800           0
     14746 MEMB     126      OSM      H14T     HAL2     0.900000E-01   1.00800           0
     14747 MEMB     126      OSM      C15S     CTL2    -0.180000       12.0110           0
     14748 MEMB     126      OSM      H15S     HAL2     0.900000E-01   1.00800           0
     14749 MEMB     126      OSM      H15T     HAL2     0.900000E-01   1.00800           0
     14750 MEMB     126      OSM      C16S     CTL2    -0.180000       12.0110           0
     14751 MEMB     126      OSM      H16S     HAL2     0.900000E-01   1.00800           0
     14752 MEMB     126      OSM      H16T     HAL2     0.900000E-01   1.00800           0
     14753 MEMB     126      OSM      C17S     CTL2    -0.180000       12.0110           0
     14754 MEMB     126      OSM      H17S     HAL2     0.900000E-01   1.00800           0
     14755 MEMB     126      OSM      H17T     HAL2     0.900000E-01   1.00800           0
     14756 MEMB     126      OSM      C18S     CTL3    -0.270000       12.0110           0
     14757 MEMB     126      OSM      H18S     HAL3     0.900000E-01   1.00800           0
     14758 MEMB     126      OSM      H18T     HAL3     0.900000E-01   1.00800           0
     14759 MEMB     126      OSM      H18U     HAL3     0.900000E-01   1.00800           0
     14760 MEMB     126      OSM      C1F      C        0.550000       12.0110           0
     14761 MEMB     126      OSM      OF       O       -0.600000       15.9994           0
     14762 MEMB     126      OSM      C2F      CTL2    -0.700000E-01   12.0110           0
     14763 MEMB     126      OSM      H2F      HAL2     0.600000E-01   1.00800           0
     14764 MEMB     126      OSM      H2G      HAL2     0.600000E-01   1.00800           0
     14765 MEMB     126      OSM      C3F      CTL2    -0.180000       12.0110           0
     14766 MEMB     126      OSM      H3F      HAL2     0.900000E-01   1.00800           0
     14767 MEMB     126      OSM      H3G      HAL2     0.900000E-01   1.00800           0
     14768 MEMB     126      OSM      C4F      CTL2    -0.180000       12.0110           0
     14769 MEMB     126      OSM      H4F      HAL2     0.900000E-01   1.00800           0
     14770 MEMB     126      OSM      H4G      HAL2     0.900000E-01   1.00800           0
     14771 MEMB     126      OSM      C5F      CTL2    -0.180000       12.0110           0
     14772 MEMB     126      OSM      H5F      HAL2     0.900000E-01   1.00800           0
     14773 MEMB     126      OSM      H5G      HAL2     0.900000E-01   1.00800           0
     14774 MEMB     126      OSM      C6F      CTL2    -0.180000       12.0110           0
     14775 MEMB     126      OSM      H6F      HAL2     0.900000E-01   1.00800           0
     14776 MEMB     126      OSM      H6G      HAL2     0.900000E-01   1.00800           0
     14777 MEMB     126      OSM      C7F      CTL2    -0.180000       12.0110           0
     14778 MEMB     126      OSM      H7F      HAL2     0.900000E-01   1.00800           0
     14779 MEMB     126      OSM      H7G      HAL2     0.900000E-01   1.00800           0
     14780 MEMB     126      OSM      C8F      CTL2    -0.180000       12.0110           0
     14781 MEMB     126      OSM      H8F      HAL2     0.900000E-01   1.00800           0
     14782 MEMB     126      OSM      H8G      HAL2     0.900000E-01   1.00800           0
     14783 MEMB     126      OSM      C9F      CEL1    -0.150000       12.0110           0
     14784 MEMB     126      OSM      H9F      HEL1     0.150000       1.00800           0
     14785 MEMB     126      OSM      C10F     CEL1    -0.150000       12.0110           0
     14786 MEMB     126      OSM      H10F     HEL1     0.150000       1.00800           0
     14787 MEMB     126      OSM      C11F     CTL2    -0.180000       12.0110           0
     14788 MEMB     126      OSM      H11F     HAL2     0.900000E-01   1.00800           0
     14789 MEMB     126      OSM      H11G     HAL2     0.900000E-01   1.00800           0
     14790 MEMB     126      OSM      C12F     CTL2    -0.180000       12.0110           0
     14791 MEMB     126      OSM      H12F     HAL2     0.900000E-01   1.00800           0
     14792 MEMB     126      OSM      H12G     HAL2     0.900000E-01   1.00800           0
     14793 MEMB     126      OSM      C13F     CTL2    -0.180000       12.0110           0
     14794 MEMB     126      OSM      H13F     HAL2     0.900000E-01   1.00800           0
     14795 MEMB     126      OSM      H13G     HAL2     0.900000E-01   1.00800           0
     14796 MEMB     126      OSM      C14F     CTL2    -0.180000       12.0110           0
     14797 MEMB     126      OSM      H14F     HAL2     0.900000E-01   1.00800           0
     14798 MEMB     126      OSM      H14G     HAL2     0.900000E-01   1.00800           0
     14799 MEMB     126      OSM      C15F     CTL2    -0.180000       12.0110           0
     14800 MEMB     126      OSM      H15F     HAL2     0.900000E-01   1.00800           0
     14801 MEMB     126      OSM      H15G     HAL2     0.900000E-01   1.00800           0
     14802 MEMB     126      OSM      C16F     CTL2    -0.180000       12.0110           0
     14803 MEMB     126      OSM      H16F     HAL2     0.900000E-01   1.00800           0
     14804 MEMB     126      OSM      H16G     HAL2     0.900000E-01   1.00800           0
     14805 MEMB     126      OSM      C17F     CTL2    -0.180000       12.0110           0
     14806 MEMB     126      OSM      H17F     HAL2     0.900000E-01   1.00800           0
     14807 MEMB     126      OSM      H17G     HAL2     0.900000E-01   1.00800           0
     14808 MEMB     126      OSM      C18F     CTL3    -0.270000       12.0110           0
     14809 MEMB     126      OSM      H18F     HAL3     0.900000E-01   1.00800           0
     14810 MEMB     126      OSM      H18G     HAL3     0.900000E-01   1.00800           0
     14811 MEMB     126      OSM      H18H     HAL3     0.900000E-01   1.00800           0
     14812 MEMB     127      OSM      N        NTL     -0.600000       14.0070           0
     14813 MEMB     127      OSM      C15      CTL5    -0.350000       12.0110           0
     14814 MEMB     127      OSM      H15A     HL       0.250000       1.00800           0
     14815 MEMB     127      OSM      H15B     HL       0.250000       1.00800           0
     14816 MEMB     127      OSM      H15C     HL       0.250000       1.00800           0
     14817 MEMB     127      OSM      C14      CTL5    -0.350000       12.0110           0
     14818 MEMB     127      OSM      H14A     HL       0.250000       1.00800           0
     14819 MEMB     127      OSM      H14B     HL       0.250000       1.00800           0
     14820 MEMB     127      OSM      H14C     HL       0.250000       1.00800           0
     14821 MEMB     127      OSM      C13      CTL5    -0.350000       12.0110           0
     14822 MEMB     127      OSM      H13A     HL       0.250000       1.00800           0
     14823 MEMB     127      OSM      H13B     HL       0.250000       1.00800           0
     14824 MEMB     127      OSM      H13C     HL       0.250000       1.00800           0
     14825 MEMB     127      OSM      C12      CTL2    -0.100000       12.0110           0
     14826 MEMB     127      OSM      H12A     HL       0.250000       1.00800           0
     14827 MEMB     127      OSM      H12B     HL       0.250000       1.00800           0
     14828 MEMB     127      OSM      C11      CTL2    -0.800000E-01   12.0110           0
     14829 MEMB     127      OSM      H11A     HAL2     0.900000E-01   1.00800           0
     14830 MEMB     127      OSM      H11B     HAL2     0.900000E-01   1.00800           0
     14831 MEMB     127      OSM      P        PL        1.50000       30.9740           0
     14832 MEMB     127      OSM      O13      O2L     -0.780000       15.9994           0
     14833 MEMB     127      OSM      O14      O2L     -0.780000       15.9994           0
     14834 MEMB     127      OSM      O11      OSLP    -0.570000       15.9994           0
     14835 MEMB     127      OSM      O12      OSLP    -0.570000       15.9994           0
     14836 MEMB     127      OSM      C1S      CTL2    -0.800000E-01   12.0110           0
     14837 MEMB     127      OSM      H1S      HAL2     0.900000E-01   1.00800           0
     14838 MEMB     127      OSM      H1T      HAL2     0.900000E-01   1.00800           0
     14839 MEMB     127      OSM      NF       NHL     -0.700000       14.0070           0
     14840 MEMB     127      OSM      HNF      H        0.350000       1.00800           0
     14841 MEMB     127      OSM      C2S      CTL1     0.300000       12.0110           0
     14842 MEMB     127      OSM      H2S      HAL1     0.500000E-01   1.00800           0
     14843 MEMB     127      OSM      C3S      CTO1     0.500000       12.0110           0
     14844 MEMB     127      OSM      H3S      HAL1    -0.110000       1.00800           0
     14845 MEMB     127      OSM      O3       OHL     -0.690000       15.9994           0
     14846 MEMB     127      OSM      HO3      HOL      0.300000       1.00800           0
     14847 MEMB     127      OSM      C4S      CEL3    -0.150000       12.0110           0
     14848 MEMB     127      OSM      H4S      HEL1     0.150000       1.00800           0
     14849 MEMB     127      OSM      C5S      CEL3    -0.150000       12.0110           0
     14850 MEMB     127      OSM      H5S      HEL1     0.150000       1.00800           0
     14851 MEMB     127      OSM      C6S      CTL2    -0.180000       12.0110           0
     14852 MEMB     127      OSM      H6S      HAL2     0.900000E-01   1.00800           0
     14853 MEMB     127      OSM      H6T      HAL2     0.900000E-01   1.00800           0
     14854 MEMB     127      OSM      C7S      CTL2    -0.180000       12.0110           0
     14855 MEMB     127      OSM      H7S      HAL2     0.900000E-01   1.00800           0
     14856 MEMB     127      OSM      H7T      HAL2     0.900000E-01   1.00800           0
     14857 MEMB     127      OSM      C8S      CTL2    -0.180000       12.0110           0
     14858 MEMB     127      OSM      H8S      HAL2     0.900000E-01   1.00800           0
     14859 MEMB     127      OSM      H8T      HAL2     0.900000E-01   1.00800           0
     14860 MEMB     127      OSM      C9S      CTL2    -0.180000       12.0110           0
     14861 MEMB     127      OSM      H9S      HAL2     0.900000E-01   1.00800           0
     14862 MEMB     127      OSM      H9T      HAL2     0.900000E-01   1.00800           0
     14863 MEMB     127      OSM      C10S     CTL2    -0.180000       12.0110           0
     14864 MEMB     127      OSM      H10S     HAL2     0.900000E-01   1.00800           0
     14865 MEMB     127      OSM      H10T     HAL2     0.900000E-01   1.00800           0
     14866 MEMB     127      OSM      C11S     CTL2    -0.180000       12.0110           0
     14867 MEMB     127      OSM      H11S     HAL2     0.900000E-01   1.00800           0
     14868 MEMB     127      OSM      H11T     HAL2     0.900000E-01   1.00800           0
     14869 MEMB     127      OSM      C12S     CTL2    -0.180000       12.0110           0
     14870 MEMB     127      OSM      H12S     HAL2     0.900000E-01   1.00800           0
     14871 MEMB     127      OSM      H12T     HAL2     0.900000E-01   1.00800           0
     14872 MEMB     127      OSM      C13S     CTL2    -0.180000       12.0110           0
     14873 MEMB     127      OSM      H13S     HAL2     0.900000E-01   1.00800           0
     14874 MEMB     127      OSM      H13T     HAL2     0.900000E-01   1.00800           0
     14875 MEMB     127      OSM      C14S     CTL2    -0.180000       12.0110           0
     14876 MEMB     127      OSM      H14S     HAL2     0.900000E-01   1.00800           0
     14877 MEMB     127      OSM      H14T     HAL2     0.900000E-01   1.00800           0
     14878 MEMB     127      OSM      C15S     CTL2    -0.180000       12.0110           0
     14879 MEMB     127      OSM      H15S     HAL2     0.900000E-01   1.00800           0
     14880 MEMB     127      OSM      H15T     HAL2     0.900000E-01   1.00800           0
     14881 MEMB     127      OSM      C16S     CTL2    -0.180000       12.0110           0
     14882 MEMB     127      OSM      H16S     HAL2     0.900000E-01   1.00800           0
     14883 MEMB     127      OSM      H16T     HAL2     0.900000E-01   1.00800           0
     14884 MEMB     127      OSM      C17S     CTL2    -0.180000       12.0110           0
     14885 MEMB     127      OSM      H17S     HAL2     0.900000E-01   1.00800           0
     14886 MEMB     127      OSM      H17T     HAL2     0.900000E-01   1.00800           0
     14887 MEMB     127      OSM      C18S     CTL3    -0.270000       12.0110           0
     14888 MEMB     127      OSM      H18S     HAL3     0.900000E-01   1.00800           0
     14889 MEMB     127      OSM      H18T     HAL3     0.900000E-01   1.00800           0
     14890 MEMB     127      OSM      H18U     HAL3     0.900000E-01   1.00800           0
     14891 MEMB     127      OSM      C1F      C        0.550000       12.0110           0
     14892 MEMB     127      OSM      OF       O       -0.600000       15.9994           0
     14893 MEMB     127      OSM      C2F      CTL2    -0.700000E-01   12.0110           0
     14894 MEMB     127      OSM      H2F      HAL2     0.600000E-01   1.00800           0
     14895 MEMB     127      OSM      H2G      HAL2     0.600000E-01   1.00800           0
     14896 MEMB     127      OSM      C3F      CTL2    -0.180000       12.0110           0
     14897 MEMB     127      OSM      H3F      HAL2     0.900000E-01   1.00800           0
     14898 MEMB     127      OSM      H3G      HAL2     0.900000E-01   1.00800           0
     14899 MEMB     127      OSM      C4F      CTL2    -0.180000       12.0110           0
     14900 MEMB     127      OSM      H4F      HAL2     0.900000E-01   1.00800           0
     14901 MEMB     127      OSM      H4G      HAL2     0.900000E-01   1.00800           0
     14902 MEMB     127      OSM      C5F      CTL2    -0.180000       12.0110           0
     14903 MEMB     127      OSM      H5F      HAL2     0.900000E-01   1.00800           0
     14904 MEMB     127      OSM      H5G      HAL2     0.900000E-01   1.00800           0
     14905 MEMB     127      OSM      C6F      CTL2    -0.180000       12.0110           0
     14906 MEMB     127      OSM      H6F      HAL2     0.900000E-01   1.00800           0
     14907 MEMB     127      OSM      H6G      HAL2     0.900000E-01   1.00800           0
     14908 MEMB     127      OSM      C7F      CTL2    -0.180000       12.0110           0
     14909 MEMB     127      OSM      H7F      HAL2     0.900000E-01   1.00800           0
     14910 MEMB     127      OSM      H7G      HAL2     0.900000E-01   1.00800           0
     14911 MEMB     127      OSM      C8F      CTL2    -0.180000       12.0110           0
     14912 MEMB     127      OSM      H8F      HAL2     0.900000E-01   1.00800           0
     14913 MEMB     127      OSM      H8G      HAL2     0.900000E-01   1.00800           0
     14914 MEMB     127      OSM      C9F      CEL1    -0.150000       12.0110           0
     14915 MEMB     127      OSM      H9F      HEL1     0.150000       1.00800           0
     14916 MEMB     127      OSM      C10F     CEL1    -0.150000       12.0110           0
     14917 MEMB     127      OSM      H10F     HEL1     0.150000       1.00800           0
     14918 MEMB     127      OSM      C11F     CTL2    -0.180000       12.0110           0
     14919 MEMB     127      OSM      H11F     HAL2     0.900000E-01   1.00800           0
     14920 MEMB     127      OSM      H11G     HAL2     0.900000E-01   1.00800           0
     14921 MEMB     127      OSM      C12F     CTL2    -0.180000       12.0110           0
     14922 MEMB     127      OSM      H12F     HAL2     0.900000E-01   1.00800           0
     14923 MEMB     127      OSM      H12G     HAL2     0.900000E-01   1.00800           0
     14924 MEMB     127      OSM      C13F     CTL2    -0.180000       12.0110           0
     14925 MEMB     127      OSM      H13F     HAL2     0.900000E-01   1.00800           0
     14926 MEMB     127      OSM      H13G     HAL2     0.900000E-01   1.00800           0
     14927 MEMB     127      OSM      C14F     CTL2    -0.180000       12.0110           0
     14928 MEMB     127      OSM      H14F     HAL2     0.900000E-01   1.00800           0
     14929 MEMB     127      OSM      H14G     HAL2     0.900000E-01   1.00800           0
     14930 MEMB     127      OSM      C15F     CTL2    -0.180000       12.0110           0
     14931 MEMB     127      OSM      H15F     HAL2     0.900000E-01   1.00800           0
     14932 MEMB     127      OSM      H15G     HAL2     0.900000E-01   1.00800           0
     14933 MEMB     127      OSM      C16F     CTL2    -0.180000       12.0110           0
     14934 MEMB     127      OSM      H16F     HAL2     0.900000E-01   1.00800           0
     14935 MEMB     127      OSM      H16G     HAL2     0.900000E-01   1.00800           0
     14936 MEMB     127      OSM      C17F     CTL2    -0.180000       12.0110           0
     14937 MEMB     127      OSM      H17F     HAL2     0.900000E-01   1.00800           0
     14938 MEMB     127      OSM      H17G     HAL2     0.900000E-01   1.00800           0
     14939 MEMB     127      OSM      C18F     CTL3    -0.270000       12.0110           0
     14940 MEMB     127      OSM      H18F     HAL3     0.900000E-01   1.00800           0
     14941 MEMB     127      OSM      H18G     HAL3     0.900000E-01   1.00800           0
     14942 MEMB     127      OSM      H18H     HAL3     0.900000E-01   1.00800           0
     14943 MEMB     128      POPC     N        NTL     -0.600000       14.0070           0
     14944 MEMB     128      POPC     C12      CTL2    -0.100000       12.0110           0
     14945 MEMB     128      POPC     H12A     HL       0.250000       1.00800           0
     14946 MEMB     128      POPC     H12B     HL       0.250000       1.00800           0
     14947 MEMB     128      POPC     C13      CTL5    -0.350000       12.0110           0
     14948 MEMB     128      POPC     H13A     HL       0.250000       1.00800           0
     14949 MEMB     128      POPC     H13B     HL       0.250000       1.00800           0
     14950 MEMB     128      POPC     H13C     HL       0.250000       1.00800           0
     14951 MEMB     128      POPC     C14      CTL5    -0.350000       12.0110           0
     14952 MEMB     128      POPC     H14A     HL       0.250000       1.00800           0
     14953 MEMB     128      POPC     H14B     HL       0.250000       1.00800           0
     14954 MEMB     128      POPC     H14C     HL       0.250000       1.00800           0
     14955 MEMB     128      POPC     C15      CTL5    -0.350000       12.0110           0
     14956 MEMB     128      POPC     H15A     HL       0.250000       1.00800           0
     14957 MEMB     128      POPC     H15B     HL       0.250000       1.00800           0
     14958 MEMB     128      POPC     H15C     HL       0.250000       1.00800           0
     14959 MEMB     128      POPC     C11      CTL2    -0.800000E-01   12.0110           0
     14960 MEMB     128      POPC     H11A     HAL2     0.900000E-01   1.00800           0
     14961 MEMB     128      POPC     H11B     HAL2     0.900000E-01   1.00800           0
     14962 MEMB     128      POPC     P        PL        1.50000       30.9740           0
     14963 MEMB     128      POPC     O13      O2L     -0.780000       15.9994           0
     14964 MEMB     128      POPC     O14      O2L     -0.780000       15.9994           0
     14965 MEMB     128      POPC     O12      OSLP    -0.570000       15.9994           0
     14966 MEMB     128      POPC     O11      OSLP    -0.570000       15.9994           0
     14967 MEMB     128      POPC     C1       CTL2    -0.800000E-01   12.0110           0
     14968 MEMB     128      POPC     HA       HAL2     0.900000E-01   1.00800           0
     14969 MEMB     128      POPC     HB       HAL2     0.900000E-01   1.00800           0
     14970 MEMB     128      POPC     C2       CTL1     0.170000       12.0110           0
     14971 MEMB     128      POPC     HS       HAL1     0.900000E-01   1.00800           0
     14972 MEMB     128      POPC     O21      OSL     -0.490000       15.9994           0
     14973 MEMB     128      POPC     C21      CL       0.900000       12.0110           0
     14974 MEMB     128      POPC     O22      OBL     -0.630000       15.9994           0
     14975 MEMB     128      POPC     C22      CTL2    -0.220000       12.0110           0
     14976 MEMB     128      POPC     H2R      HAL2     0.900000E-01   1.00800           0
     14977 MEMB     128      POPC     H2S      HAL2     0.900000E-01   1.00800           0
     14978 MEMB     128      POPC     C3       CTL2     0.800000E-01   12.0110           0
     14979 MEMB     128      POPC     HX       HAL2     0.900000E-01   1.00800           0
     14980 MEMB     128      POPC     HY       HAL2     0.900000E-01   1.00800           0
     14981 MEMB     128      POPC     O31      OSL     -0.490000       15.9994           0
     14982 MEMB     128      POPC     C31      CL       0.900000       12.0110           0
     14983 MEMB     128      POPC     O32      OBL     -0.630000       15.9994           0
     14984 MEMB     128      POPC     C32      CTL2    -0.220000       12.0110           0
     14985 MEMB     128      POPC     H2X      HAL2     0.900000E-01   1.00800           0
     14986 MEMB     128      POPC     H2Y      HAL2     0.900000E-01   1.00800           0
     14987 MEMB     128      POPC     C23      CTL2    -0.180000       12.0110           0
     14988 MEMB     128      POPC     H3R      HAL2     0.900000E-01   1.00800           0
     14989 MEMB     128      POPC     H3S      HAL2     0.900000E-01   1.00800           0
     14990 MEMB     128      POPC     C24      CTL2    -0.180000       12.0110           0
     14991 MEMB     128      POPC     H4R      HAL2     0.900000E-01   1.00800           0
     14992 MEMB     128      POPC     H4S      HAL2     0.900000E-01   1.00800           0
     14993 MEMB     128      POPC     C25      CTL2    -0.180000       12.0110           0
     14994 MEMB     128      POPC     H5R      HAL2     0.900000E-01   1.00800           0
     14995 MEMB     128      POPC     H5S      HAL2     0.900000E-01   1.00800           0
     14996 MEMB     128      POPC     C26      CTL2    -0.180000       12.0110           0
     14997 MEMB     128      POPC     H6R      HAL2     0.900000E-01   1.00800           0
     14998 MEMB     128      POPC     H6S      HAL2     0.900000E-01   1.00800           0
     14999 MEMB     128      POPC     C27      CTL2    -0.180000       12.0110           0
     15000 MEMB     128      POPC     H7R      HAL2     0.900000E-01   1.00800           0
     15001 MEMB     128      POPC     H7S      HAL2     0.900000E-01   1.00800           0
     15002 MEMB     128      POPC     C28      CTL2    -0.180000       12.0110           0
     15003 MEMB     128      POPC     H8R      HAL2     0.900000E-01   1.00800           0
     15004 MEMB     128      POPC     H8S      HAL2     0.900000E-01   1.00800           0
     15005 MEMB     128      POPC     C29      CEL1    -0.150000       12.0110           0
     15006 MEMB     128      POPC     H91      HEL1     0.150000       1.00800           0
     15007 MEMB     128      POPC     C210     CEL1    -0.150000       12.0110           0
     15008 MEMB     128      POPC     H101     HEL1     0.150000       1.00800           0
     15009 MEMB     128      POPC     C211     CTL2    -0.180000       12.0110           0
     15010 MEMB     128      POPC     H11R     HAL2     0.900000E-01   1.00800           0
     15011 MEMB     128      POPC     H11S     HAL2     0.900000E-01   1.00800           0
     15012 MEMB     128      POPC     C212     CTL2    -0.180000       12.0110           0
     15013 MEMB     128      POPC     H12R     HAL2     0.900000E-01   1.00800           0
     15014 MEMB     128      POPC     H12S     HAL2     0.900000E-01   1.00800           0
     15015 MEMB     128      POPC     C213     CTL2    -0.180000       12.0110           0
     15016 MEMB     128      POPC     H13R     HAL2     0.900000E-01   1.00800           0
     15017 MEMB     128      POPC     H13S     HAL2     0.900000E-01   1.00800           0
     15018 MEMB     128      POPC     C214     CTL2    -0.180000       12.0110           0
     15019 MEMB     128      POPC     H14R     HAL2     0.900000E-01   1.00800           0
     15020 MEMB     128      POPC     H14S     HAL2     0.900000E-01   1.00800           0
     15021 MEMB     128      POPC     C215     CTL2    -0.180000       12.0110           0
     15022 MEMB     128      POPC     H15R     HAL2     0.900000E-01   1.00800           0
     15023 MEMB     128      POPC     H15S     HAL2     0.900000E-01   1.00800           0
     15024 MEMB     128      POPC     C216     CTL2    -0.180000       12.0110           0
     15025 MEMB     128      POPC     H16R     HAL2     0.900000E-01   1.00800           0
     15026 MEMB     128      POPC     H16S     HAL2     0.900000E-01   1.00800           0
     15027 MEMB     128      POPC     C217     CTL2    -0.180000       12.0110           0
     15028 MEMB     128      POPC     H17R     HAL2     0.900000E-01   1.00800           0
     15029 MEMB     128      POPC     H17S     HAL2     0.900000E-01   1.00800           0
     15030 MEMB     128      POPC     C218     CTL3    -0.270000       12.0110           0
     15031 MEMB     128      POPC     H18R     HAL3     0.900000E-01   1.00800           0
     15032 MEMB     128      POPC     H18S     HAL3     0.900000E-01   1.00800           0
     15033 MEMB     128      POPC     H18T     HAL3     0.900000E-01   1.00800           0
     15034 MEMB     128      POPC     C33      CTL2    -0.180000       12.0110           0
     15035 MEMB     128      POPC     H3X      HAL2     0.900000E-01   1.00800           0
     15036 MEMB     128      POPC     H3Y      HAL2     0.900000E-01   1.00800           0
     15037 MEMB     128      POPC     C34      CTL2    -0.180000       12.0110           0
     15038 MEMB     128      POPC     H4X      HAL2     0.900000E-01   1.00800           0
     15039 MEMB     128      POPC     H4Y      HAL2     0.900000E-01   1.00800           0
     15040 MEMB     128      POPC     C35      CTL2    -0.180000       12.0110           0
     15041 MEMB     128      POPC     H5X      HAL2     0.900000E-01   1.00800           0
     15042 MEMB     128      POPC     H5Y      HAL2     0.900000E-01   1.00800           0
     15043 MEMB     128      POPC     C36      CTL2    -0.180000       12.0110           0
     15044 MEMB     128      POPC     H6X      HAL2     0.900000E-01   1.00800           0
     15045 MEMB     128      POPC     H6Y      HAL2     0.900000E-01   1.00800           0
     15046 MEMB     128      POPC     C37      CTL2    -0.180000       12.0110           0
     15047 MEMB     128      POPC     H7X      HAL2     0.900000E-01   1.00800           0
     15048 MEMB     128      POPC     H7Y      HAL2     0.900000E-01   1.00800           0
     15049 MEMB     128      POPC     C38      CTL2    -0.180000       12.0110           0
     15050 MEMB     128      POPC     H8X      HAL2     0.900000E-01   1.00800           0
     15051 MEMB     128      POPC     H8Y      HAL2     0.900000E-01   1.00800           0
     15052 MEMB     128      POPC     C39      CTL2    -0.180000       12.0110           0
     15053 MEMB     128      POPC     H9X      HAL2     0.900000E-01   1.00800           0
     15054 MEMB     128      POPC     H9Y      HAL2     0.900000E-01   1.00800           0
     15055 MEMB     128      POPC     C310     CTL2    -0.180000       12.0110           0
     15056 MEMB     128      POPC     H10X     HAL2     0.900000E-01   1.00800           0
     15057 MEMB     128      POPC     H10Y     HAL2     0.900000E-01   1.00800           0
     15058 MEMB     128      POPC     C311     CTL2    -0.180000       12.0110           0
     15059 MEMB     128      POPC     H11X     HAL2     0.900000E-01   1.00800           0
     15060 MEMB     128      POPC     H11Y     HAL2     0.900000E-01   1.00800           0
     15061 MEMB     128      POPC     C312     CTL2    -0.180000       12.0110           0
     15062 MEMB     128      POPC     H12X     HAL2     0.900000E-01   1.00800           0
     15063 MEMB     128      POPC     H12Y     HAL2     0.900000E-01   1.00800           0
     15064 MEMB     128      POPC     C313     CTL2    -0.180000       12.0110           0
     15065 MEMB     128      POPC     H13X     HAL2     0.900000E-01   1.00800           0
     15066 MEMB     128      POPC     H13Y     HAL2     0.900000E-01   1.00800           0
     15067 MEMB     128      POPC     C314     CTL2    -0.180000       12.0110           0
     15068 MEMB     128      POPC     H14X     HAL2     0.900000E-01   1.00800           0
     15069 MEMB     128      POPC     H14Y     HAL2     0.900000E-01   1.00800           0
     15070 MEMB     128      POPC     C315     CTL2    -0.180000       12.0110           0
     15071 MEMB     128      POPC     H15X     HAL2     0.900000E-01   1.00800           0
     15072 MEMB     128      POPC     H15Y     HAL2     0.900000E-01   1.00800           0
     15073 MEMB     128      POPC     C316     CTL3    -0.270000       12.0110           0
     15074 MEMB     128      POPC     H16X     HAL3     0.900000E-01   1.00800           0
     15075 MEMB     128      POPC     H16Y     HAL3     0.900000E-01   1.00800           0
     15076 MEMB     128      POPC     H16Z     HAL3     0.900000E-01   1.00800           0
     15077 MEMB     129      SAPS     N        NH3L    -0.300000       14.0070           0
     15078 MEMB     129      SAPS     HN1      HCL      0.330000       1.00800           0
     15079 MEMB     129      SAPS     HN2      HCL      0.330000       1.00800           0
     15080 MEMB     129      SAPS     HN3      HCL      0.330000       1.00800           0
     15081 MEMB     129      SAPS     C12      CTL1     0.210000       12.0110           0
     15082 MEMB     129      SAPS     H12A     HBL      0.100000       1.00800           0
     15083 MEMB     129      SAPS     C13      CCL      0.340000       12.0110           0
     15084 MEMB     129      SAPS     O13A     OCL     -0.670000       15.9994           0
     15085 MEMB     129      SAPS     O13B     OCL     -0.670000       15.9994           0
     15086 MEMB     129      SAPS     C11      CTL2    -0.800000E-01   12.0110           0
     15087 MEMB     129      SAPS     H11A     HAL2     0.900000E-01   1.00800           0
     15088 MEMB     129      SAPS     H11B     HAL2     0.900000E-01   1.00800           0
     15089 MEMB     129      SAPS     P        PL        1.50000       30.9740           0
     15090 MEMB     129      SAPS     O13      O2L     -0.780000       15.9994           0
     15091 MEMB     129      SAPS     O14      O2L     -0.780000       15.9994           0
     15092 MEMB     129      SAPS     O12      OSLP    -0.570000       15.9994           0
     15093 MEMB     129      SAPS     O11      OSLP    -0.570000       15.9994           0
     15094 MEMB     129      SAPS     C1       CTL2    -0.800000E-01   12.0110           0
     15095 MEMB     129      SAPS     HA       HAL2     0.900000E-01   1.00800           0
     15096 MEMB     129      SAPS     HB       HAL2     0.900000E-01   1.00800           0
     15097 MEMB     129      SAPS     C2       CTL1     0.170000       12.0110           0
     15098 MEMB     129      SAPS     HS       HAL1     0.900000E-01   1.00800           0
     15099 MEMB     129      SAPS     O21      OSL     -0.490000       15.9994           0
     15100 MEMB     129      SAPS     C21      CL       0.900000       12.0110           0
     15101 MEMB     129      SAPS     O22      OBL     -0.630000       15.9994           0
     15102 MEMB     129      SAPS     C22      CTL2    -0.220000       12.0110           0
     15103 MEMB     129      SAPS     H2R      HAL2     0.900000E-01   1.00800           0
     15104 MEMB     129      SAPS     H2S      HAL2     0.900000E-01   1.00800           0
     15105 MEMB     129      SAPS     C3       CTL2     0.800000E-01   12.0110           0
     15106 MEMB     129      SAPS     HX       HAL2     0.900000E-01   1.00800           0
     15107 MEMB     129      SAPS     HY       HAL2     0.900000E-01   1.00800           0
     15108 MEMB     129      SAPS     O31      OSL     -0.490000       15.9994           0
     15109 MEMB     129      SAPS     C31      CL       0.900000       12.0110           0
     15110 MEMB     129      SAPS     O32      OBL     -0.630000       15.9994           0
     15111 MEMB     129      SAPS     C32      CTL2    -0.220000       12.0110           0
     15112 MEMB     129      SAPS     H2X      HAL2     0.900000E-01   1.00800           0
     15113 MEMB     129      SAPS     H2Y      HAL2     0.900000E-01   1.00800           0
     15114 MEMB     129      SAPS     C23      CTL2    -0.180000       12.0110           0
     15115 MEMB     129      SAPS     H3R      HAL2     0.900000E-01   1.00800           0
     15116 MEMB     129      SAPS     H3S      HAL2     0.900000E-01   1.00800           0
     15117 MEMB     129      SAPS     C24      CTL2    -0.180000       12.0110           0
     15118 MEMB     129      SAPS     H4R      HAL2     0.900000E-01   1.00800           0
     15119 MEMB     129      SAPS     H4S      HAL2     0.900000E-01   1.00800           0
     15120 MEMB     129      SAPS     C25      CEL1    -0.150000       12.0110           0
     15121 MEMB     129      SAPS     H5R      HEL1     0.150000       1.00800           0
     15122 MEMB     129      SAPS     C26      CEL1    -0.150000       12.0110           0
     15123 MEMB     129      SAPS     H6R      HEL1     0.150000       1.00800           0
     15124 MEMB     129      SAPS     C27      CTL2    -0.180000       12.0110           0
     15125 MEMB     129      SAPS     H7R      HAL2     0.900000E-01   1.00800           0
     15126 MEMB     129      SAPS     H7S      HAL2     0.900000E-01   1.00800           0
     15127 MEMB     129      SAPS     C28      CEL1    -0.150000       12.0110           0
     15128 MEMB     129      SAPS     H8R      HEL1     0.150000       1.00800           0
     15129 MEMB     129      SAPS     C29      CEL1    -0.150000       12.0110           0
     15130 MEMB     129      SAPS     H9R      HEL1     0.150000       1.00800           0
     15131 MEMB     129      SAPS     C210     CTL2    -0.180000       12.0110           0
     15132 MEMB     129      SAPS     H10R     HAL2     0.900000E-01   1.00800           0
     15133 MEMB     129      SAPS     H10S     HAL2     0.900000E-01   1.00800           0
     15134 MEMB     129      SAPS     C211     CEL1    -0.150000       12.0110           0
     15135 MEMB     129      SAPS     H11R     HEL1     0.150000       1.00800           0
     15136 MEMB     129      SAPS     C212     CEL1    -0.150000       12.0110           0
     15137 MEMB     129      SAPS     H12R     HEL1     0.150000       1.00800           0
     15138 MEMB     129      SAPS     C213     CTL2    -0.180000       12.0110           0
     15139 MEMB     129      SAPS     H13R     HAL2     0.900000E-01   1.00800           0
     15140 MEMB     129      SAPS     H13S     HAL2     0.900000E-01   1.00800           0
     15141 MEMB     129      SAPS     C214     CEL1    -0.150000       12.0110           0
     15142 MEMB     129      SAPS     H14R     HEL1     0.150000       1.00800           0
     15143 MEMB     129      SAPS     C215     CEL1    -0.150000       12.0110           0
     15144 MEMB     129      SAPS     H15R     HEL1     0.150000       1.00800           0
     15145 MEMB     129      SAPS     C216     CTL2    -0.180000       12.0110           0
     15146 MEMB     129      SAPS     H16R     HAL2     0.900000E-01   1.00800           0
     15147 MEMB     129      SAPS     H16S     HAL2     0.900000E-01   1.00800           0
     15148 MEMB     129      SAPS     C217     CTL2    -0.180000       12.0110           0
     15149 MEMB     129      SAPS     H17R     HAL2     0.900000E-01   1.00800           0
     15150 MEMB     129      SAPS     H17S     HAL2     0.900000E-01   1.00800           0
     15151 MEMB     129      SAPS     C218     CTL2    -0.180000       12.0110           0
     15152 MEMB     129      SAPS     H18R     HAL2     0.900000E-01   1.00800           0
     15153 MEMB     129      SAPS     H18S     HAL2     0.900000E-01   1.00800           0
     15154 MEMB     129      SAPS     C219     CTL2    -0.180000       12.0110           0
     15155 MEMB     129      SAPS     H19R     HAL2     0.900000E-01   1.00800           0
     15156 MEMB     129      SAPS     H19S     HAL2     0.900000E-01   1.00800           0
     15157 MEMB     129      SAPS     C220     CTL3    -0.270000       12.0110           0
     15158 MEMB     129      SAPS     H20R     HAL3     0.900000E-01   1.00800           0
     15159 MEMB     129      SAPS     H20S     HAL3     0.900000E-01   1.00800           0
     15160 MEMB     129      SAPS     H20T     HAL3     0.900000E-01   1.00800           0
     15161 MEMB     129      SAPS     C33      CTL2    -0.180000       12.0110           0
     15162 MEMB     129      SAPS     H3X      HAL2     0.900000E-01   1.00800           0
     15163 MEMB     129      SAPS     H3Y      HAL2     0.900000E-01   1.00800           0
     15164 MEMB     129      SAPS     C34      CTL2    -0.180000       12.0110           0
     15165 MEMB     129      SAPS     H4X      HAL2     0.900000E-01   1.00800           0
     15166 MEMB     129      SAPS     H4Y      HAL2     0.900000E-01   1.00800           0
     15167 MEMB     129      SAPS     C35      CTL2    -0.180000       12.0110           0
     15168 MEMB     129      SAPS     H5X      HAL2     0.900000E-01   1.00800           0
     15169 MEMB     129      SAPS     H5Y      HAL2     0.900000E-01   1.00800           0
     15170 MEMB     129      SAPS     C36      CTL2    -0.180000       12.0110           0
     15171 MEMB     129      SAPS     H6X      HAL2     0.900000E-01   1.00800           0
     15172 MEMB     129      SAPS     H6Y      HAL2     0.900000E-01   1.00800           0
     15173 MEMB     129      SAPS     C37      CTL2    -0.180000       12.0110           0
     15174 MEMB     129      SAPS     H7X      HAL2     0.900000E-01   1.00800           0
     15175 MEMB     129      SAPS     H7Y      HAL2     0.900000E-01   1.00800           0
     15176 MEMB     129      SAPS     C38      CTL2    -0.180000       12.0110           0
     15177 MEMB     129      SAPS     H8X      HAL2     0.900000E-01   1.00800           0
     15178 MEMB     129      SAPS     H8Y      HAL2     0.900000E-01   1.00800           0
     15179 MEMB     129      SAPS     C39      CTL2    -0.180000       12.0110           0
     15180 MEMB     129      SAPS     H9X      HAL2     0.900000E-01   1.00800           0
     15181 MEMB     129      SAPS     H9Y      HAL2     0.900000E-01   1.00800           0
     15182 MEMB     129      SAPS     C310     CTL2    -0.180000       12.0110           0
     15183 MEMB     129      SAPS     H10X     HAL2     0.900000E-01   1.00800           0
     15184 MEMB     129      SAPS     H10Y     HAL2     0.900000E-01   1.00800           0
     15185 MEMB     129      SAPS     C311     CTL2    -0.180000       12.0110           0
     15186 MEMB     129      SAPS     H11X     HAL2     0.900000E-01   1.00800           0
     15187 MEMB     129      SAPS     H11Y     HAL2     0.900000E-01   1.00800           0
     15188 MEMB     129      SAPS     C312     CTL2    -0.180000       12.0110           0
     15189 MEMB     129      SAPS     H12X     HAL2     0.900000E-01   1.00800           0
     15190 MEMB     129      SAPS     H12Y     HAL2     0.900000E-01   1.00800           0
     15191 MEMB     129      SAPS     C313     CTL2    -0.180000       12.0110           0
     15192 MEMB     129      SAPS     H13X     HAL2     0.900000E-01   1.00800           0
     15193 MEMB     129      SAPS     H13Y     HAL2     0.900000E-01   1.00800           0
     15194 MEMB     129      SAPS     C314     CTL2    -0.180000       12.0110           0
     15195 MEMB     129      SAPS     H14X     HAL2     0.900000E-01   1.00800           0
     15196 MEMB     129      SAPS     H14Y     HAL2     0.900000E-01   1.00800           0
     15197 MEMB     129      SAPS     C315     CTL2    -0.180000       12.0110           0
     15198 MEMB     129      SAPS     H15X     HAL2     0.900000E-01   1.00800           0
     15199 MEMB     129      SAPS     H15Y     HAL2     0.900000E-01   1.00800           0
     15200 MEMB     129      SAPS     C316     CTL2    -0.180000       12.0110           0
     15201 MEMB     129      SAPS     H16X     HAL2     0.900000E-01   1.00800           0
     15202 MEMB     129      SAPS     H16Y     HAL2     0.900000E-01   1.00800           0
     15203 MEMB     129      SAPS     C317     CTL2    -0.180000       12.0110           0
     15204 MEMB     129      SAPS     H17X     HAL2     0.900000E-01   1.00800           0
     15205 MEMB     129      SAPS     H17Y     HAL2     0.900000E-01   1.00800           0
     15206 MEMB     129      SAPS     C318     CTL3    -0.270000       12.0110           0
     15207 MEMB     129      SAPS     H18X     HAL3     0.900000E-01   1.00800           0
     15208 MEMB     129      SAPS     H18Y     HAL3     0.900000E-01   1.00800           0
     15209 MEMB     129      SAPS     H18Z     HAL3     0.900000E-01   1.00800           0
     15210 MEMB     130      CHL1     C3       CRL1     0.140000       12.0110           0
     15211 MEMB     130      CHL1     H3       HGA1     0.900000E-01   1.00800           0
     15212 MEMB     130      CHL1     O3       OHL     -0.660000       15.9994           0
     15213 MEMB     130      CHL1     H3'      HOL      0.430000       1.00800           0
     15214 MEMB     130      CHL1     C4       CRL2    -0.180000       12.0110           0
     15215 MEMB     130      CHL1     H4A      HGA2     0.900000E-01   1.00800           0
     15216 MEMB     130      CHL1     H4B      HGA2     0.900000E-01   1.00800           0
     15217 MEMB     130      CHL1     C5       CEL1      0.00000       12.0110           0
     15218 MEMB     130      CHL1     C6       CEL1    -0.150000       12.0110           0
     15219 MEMB     130      CHL1     H6       HEL1     0.150000       1.00800           0
     15220 MEMB     130      CHL1     C7       CRL2    -0.180000       12.0110           0
     15221 MEMB     130      CHL1     H7A      HGA2     0.900000E-01   1.00800           0
     15222 MEMB     130      CHL1     H7B      HGA2     0.900000E-01   1.00800           0
     15223 MEMB     130      CHL1     C8       CRL1    -0.900000E-01   12.0110           0
     15224 MEMB     130      CHL1     H8       HGA1     0.900000E-01   1.00800           0
     15225 MEMB     130      CHL1     C14      CRL1    -0.900000E-01   12.0110           0
     15226 MEMB     130      CHL1     H14      HGA1     0.900000E-01   1.00800           0
     15227 MEMB     130      CHL1     C15      CRL2    -0.180000       12.0110           0
     15228 MEMB     130      CHL1     H15A     HGA2     0.900000E-01   1.00800           0
     15229 MEMB     130      CHL1     H15B     HGA2     0.900000E-01   1.00800           0
     15230 MEMB     130      CHL1     C16      CRL2    -0.180000       12.0110           0
     15231 MEMB     130      CHL1     H16A     HGA2     0.900000E-01   1.00800           0
     15232 MEMB     130      CHL1     H16B     HGA2     0.900000E-01   1.00800           0
     15233 MEMB     130      CHL1     C17      CRL1    -0.900000E-01   12.0110           0
     15234 MEMB     130      CHL1     H17      HGA1     0.900000E-01   1.00800           0
     15235 MEMB     130      CHL1     C13      CRL1      0.00000       12.0110           0
     15236 MEMB     130      CHL1     C18      CTL3    -0.270000       12.0110           0
     15237 MEMB     130      CHL1     H18A     HAL3     0.900000E-01   1.00800           0
     15238 MEMB     130      CHL1     H18B     HAL3     0.900000E-01   1.00800           0
     15239 MEMB     130      CHL1     H18C     HAL3     0.900000E-01   1.00800           0
     15240 MEMB     130      CHL1     C12      CRL2    -0.180000       12.0110           0
     15241 MEMB     130      CHL1     H12A     HGA2     0.900000E-01   1.00800           0
     15242 MEMB     130      CHL1     H12B     HGA2     0.900000E-01   1.00800           0
     15243 MEMB     130      CHL1     C11      CRL2    -0.180000       12.0110           0
     15244 MEMB     130      CHL1     H11A     HGA2     0.900000E-01   1.00800           0
     15245 MEMB     130      CHL1     H11B     HGA2     0.900000E-01   1.00800           0
     15246 MEMB     130      CHL1     C9       CRL1    -0.900000E-01   12.0110           0
     15247 MEMB     130      CHL1     H9       HGA1     0.900000E-01   1.00800           0
     15248 MEMB     130      CHL1     C10      CRL1      0.00000       12.0110           0
     15249 MEMB     130      CHL1     C19      CTL3    -0.270000       12.0110           0
     15250 MEMB     130      CHL1     H19A     HAL3     0.900000E-01   1.00800           0
     15251 MEMB     130      CHL1     H19B     HAL3     0.900000E-01   1.00800           0
     15252 MEMB     130      CHL1     H19C     HAL3     0.900000E-01   1.00800           0
     15253 MEMB     130      CHL1     C1       CRL2    -0.180000       12.0110           0
     15254 MEMB     130      CHL1     H1A      HGA2     0.900000E-01   1.00800           0
     15255 MEMB     130      CHL1     H1B      HGA2     0.900000E-01   1.00800           0
     15256 MEMB     130      CHL1     C2       CRL2    -0.180000       12.0110           0
     15257 MEMB     130      CHL1     H2A      HGA2     0.900000E-01   1.00800           0
     15258 MEMB     130      CHL1     H2B      HGA2     0.900000E-01   1.00800           0
     15259 MEMB     130      CHL1     C20      CTL1    -0.900000E-01   12.0110           0
     15260 MEMB     130      CHL1     H20      HAL1     0.900000E-01   1.00800           0
     15261 MEMB     130      CHL1     C21      CTL3    -0.270000       12.0110           0
     15262 MEMB     130      CHL1     H21A     HAL3     0.900000E-01   1.00800           0
     15263 MEMB     130      CHL1     H21B     HAL3     0.900000E-01   1.00800           0
     15264 MEMB     130      CHL1     H21C     HAL3     0.900000E-01   1.00800           0
     15265 MEMB     130      CHL1     C22      CTL2    -0.180000       12.0110           0
     15266 MEMB     130      CHL1     H22A     HAL2     0.900000E-01   1.00800           0
     15267 MEMB     130      CHL1     H22B     HAL2     0.900000E-01   1.00800           0
     15268 MEMB     130      CHL1     C23      CTL2    -0.180000       12.0110           0
     15269 MEMB     130      CHL1     H23A     HAL2     0.900000E-01   1.00800           0
     15270 MEMB     130      CHL1     H23B     HAL2     0.900000E-01   1.00800           0
     15271 MEMB     130      CHL1     C24      CTL2    -0.180000       12.0110           0
     15272 MEMB     130      CHL1     H24A     HAL2     0.900000E-01   1.00800           0
     15273 MEMB     130      CHL1     H24B     HAL2     0.900000E-01   1.00800           0
     15274 MEMB     130      CHL1     C25      CTL1    -0.900000E-01   12.0110           0
     15275 MEMB     130      CHL1     H25      HAL1     0.900000E-01   1.00800           0
     15276 MEMB     130      CHL1     C26      CTL3    -0.270000       12.0110           0
     15277 MEMB     130      CHL1     H26A     HAL3     0.900000E-01   1.00800           0
     15278 MEMB     130      CHL1     H26B     HAL3     0.900000E-01   1.00800           0
     15279 MEMB     130      CHL1     H26C     HAL3     0.900000E-01   1.00800           0
     15280 MEMB     130      CHL1     C27      CTL3    -0.270000       12.0110           0
     15281 MEMB     130      CHL1     H27A     HAL3     0.900000E-01   1.00800           0
     15282 MEMB     130      CHL1     H27B     HAL3     0.900000E-01   1.00800           0
     15283 MEMB     130      CHL1     H27C     HAL3     0.900000E-01   1.00800           0
     15284 MEMB     131      SAPE     N        NH3L    -0.300000       14.0070           0
     15285 MEMB     131      SAPE     HN1      HCL      0.330000       1.00800           0
     15286 MEMB     131      SAPE     HN2      HCL      0.330000       1.00800           0
     15287 MEMB     131      SAPE     HN3      HCL      0.330000       1.00800           0
     15288 MEMB     131      SAPE     C12      CTL2     0.130000       12.0110           0
     15289 MEMB     131      SAPE     H12A     HAL2     0.900000E-01   1.00800           0
     15290 MEMB     131      SAPE     H12B     HAL2     0.900000E-01   1.00800           0
     15291 MEMB     131      SAPE     C11      CTL2    -0.800000E-01   12.0110           0
     15292 MEMB     131      SAPE     H11A     HAL2     0.900000E-01   1.00800           0
     15293 MEMB     131      SAPE     H11B     HAL2     0.900000E-01   1.00800           0
     15294 MEMB     131      SAPE     P        PL        1.50000       30.9740           0
     15295 MEMB     131      SAPE     O13      O2L     -0.780000       15.9994           0
     15296 MEMB     131      SAPE     O14      O2L     -0.780000       15.9994           0
     15297 MEMB     131      SAPE     O12      OSLP    -0.570000       15.9994           0
     15298 MEMB     131      SAPE     O11      OSLP    -0.570000       15.9994           0
     15299 MEMB     131      SAPE     C1       CTL2    -0.800000E-01   12.0110           0
     15300 MEMB     131      SAPE     HA       HAL2     0.900000E-01   1.00800           0
     15301 MEMB     131      SAPE     HB       HAL2     0.900000E-01   1.00800           0
     15302 MEMB     131      SAPE     C2       CTL1     0.170000       12.0110           0
     15303 MEMB     131      SAPE     HS       HAL1     0.900000E-01   1.00800           0
     15304 MEMB     131      SAPE     O21      OSL     -0.490000       15.9994           0
     15305 MEMB     131      SAPE     C21      CL       0.900000       12.0110           0
     15306 MEMB     131      SAPE     O22      OBL     -0.630000       15.9994           0
     15307 MEMB     131      SAPE     C22      CTL2    -0.220000       12.0110           0
     15308 MEMB     131      SAPE     H2R      HAL2     0.900000E-01   1.00800           0
     15309 MEMB     131      SAPE     H2S      HAL2     0.900000E-01   1.00800           0
     15310 MEMB     131      SAPE     C3       CTL2     0.800000E-01   12.0110           0
     15311 MEMB     131      SAPE     HX       HAL2     0.900000E-01   1.00800           0
     15312 MEMB     131      SAPE     HY       HAL2     0.900000E-01   1.00800           0
     15313 MEMB     131      SAPE     O31      OSL     -0.490000       15.9994           0
     15314 MEMB     131      SAPE     C31      CL       0.900000       12.0110           0
     15315 MEMB     131      SAPE     O32      OBL     -0.630000       15.9994           0
     15316 MEMB     131      SAPE     C32      CTL2    -0.220000       12.0110           0
     15317 MEMB     131      SAPE     H2X      HAL2     0.900000E-01   1.00800           0
     15318 MEMB     131      SAPE     H2Y      HAL2     0.900000E-01   1.00800           0
     15319 MEMB     131      SAPE     C23      CTL2    -0.180000       12.0110           0
     15320 MEMB     131      SAPE     H3R      HAL2     0.900000E-01   1.00800           0
     15321 MEMB     131      SAPE     H3S      HAL2     0.900000E-01   1.00800           0
     15322 MEMB     131      SAPE     C24      CTL2    -0.180000       12.0110           0
     15323 MEMB     131      SAPE     H4R      HAL2     0.900000E-01   1.00800           0
     15324 MEMB     131      SAPE     H4S      HAL2     0.900000E-01   1.00800           0
     15325 MEMB     131      SAPE     C25      CEL1    -0.150000       12.0110           0
     15326 MEMB     131      SAPE     H5R      HEL1     0.150000       1.00800           0
     15327 MEMB     131      SAPE     C26      CEL1    -0.150000       12.0110           0
     15328 MEMB     131      SAPE     H6R      HEL1     0.150000       1.00800           0
     15329 MEMB     131      SAPE     C27      CTL2    -0.180000       12.0110           0
     15330 MEMB     131      SAPE     H7R      HAL2     0.900000E-01   1.00800           0
     15331 MEMB     131      SAPE     H7S      HAL2     0.900000E-01   1.00800           0
     15332 MEMB     131      SAPE     C28      CEL1    -0.150000       12.0110           0
     15333 MEMB     131      SAPE     H8R      HEL1     0.150000       1.00800           0
     15334 MEMB     131      SAPE     C29      CEL1    -0.150000       12.0110           0
     15335 MEMB     131      SAPE     H9R      HEL1     0.150000       1.00800           0
     15336 MEMB     131      SAPE     C210     CTL2    -0.180000       12.0110           0
     15337 MEMB     131      SAPE     H10R     HAL2     0.900000E-01   1.00800           0
     15338 MEMB     131      SAPE     H10S     HAL2     0.900000E-01   1.00800           0
     15339 MEMB     131      SAPE     C211     CEL1    -0.150000       12.0110           0
     15340 MEMB     131      SAPE     H11R     HEL1     0.150000       1.00800           0
     15341 MEMB     131      SAPE     C212     CEL1    -0.150000       12.0110           0
     15342 MEMB     131      SAPE     H12R     HEL1     0.150000       1.00800           0
     15343 MEMB     131      SAPE     C213     CTL2    -0.180000       12.0110           0
     15344 MEMB     131      SAPE     H13R     HAL2     0.900000E-01   1.00800           0
     15345 MEMB     131      SAPE     H13S     HAL2     0.900000E-01   1.00800           0
     15346 MEMB     131      SAPE     C214     CEL1    -0.150000       12.0110           0
     15347 MEMB     131      SAPE     H14R     HEL1     0.150000       1.00800           0
     15348 MEMB     131      SAPE     C215     CEL1    -0.150000       12.0110           0
     15349 MEMB     131      SAPE     H15R     HEL1     0.150000       1.00800           0
     15350 MEMB     131      SAPE     C216     CTL2    -0.180000       12.0110           0
     15351 MEMB     131      SAPE     H16R     HAL2     0.900000E-01   1.00800           0
     15352 MEMB     131      SAPE     H16S     HAL2     0.900000E-01   1.00800           0
     15353 MEMB     131      SAPE     C217     CTL2    -0.180000       12.0110           0
     15354 MEMB     131      SAPE     H17R     HAL2     0.900000E-01   1.00800           0
     15355 MEMB     131      SAPE     H17S     HAL2     0.900000E-01   1.00800           0
     15356 MEMB     131      SAPE     C218     CTL2    -0.180000       12.0110           0
     15357 MEMB     131      SAPE     H18R     HAL2     0.900000E-01   1.00800           0
     15358 MEMB     131      SAPE     H18S     HAL2     0.900000E-01   1.00800           0
     15359 MEMB     131      SAPE     C219     CTL2    -0.180000       12.0110           0
     15360 MEMB     131      SAPE     H19R     HAL2     0.900000E-01   1.00800           0
     15361 MEMB     131      SAPE     H19S     HAL2     0.900000E-01   1.00800           0
     15362 MEMB     131      SAPE     C220     CTL3    -0.270000       12.0110           0
     15363 MEMB     131      SAPE     H20R     HAL3     0.900000E-01   1.00800           0
     15364 MEMB     131      SAPE     H20S     HAL3     0.900000E-01   1.00800           0
     15365 MEMB     131      SAPE     H20T     HAL3     0.900000E-01   1.00800           0
     15366 MEMB     131      SAPE     C33      CTL2    -0.180000       12.0110           0
     15367 MEMB     131      SAPE     H3X      HAL2     0.900000E-01   1.00800           0
     15368 MEMB     131      SAPE     H3Y      HAL2     0.900000E-01   1.00800           0
     15369 MEMB     131      SAPE     C34      CTL2    -0.180000       12.0110           0
     15370 MEMB     131      SAPE     H4X      HAL2     0.900000E-01   1.00800           0
     15371 MEMB     131      SAPE     H4Y      HAL2     0.900000E-01   1.00800           0
     15372 MEMB     131      SAPE     C35      CTL2    -0.180000       12.0110           0
     15373 MEMB     131      SAPE     H5X      HAL2     0.900000E-01   1.00800           0
     15374 MEMB     131      SAPE     H5Y      HAL2     0.900000E-01   1.00800           0
     15375 MEMB     131      SAPE     C36      CTL2    -0.180000       12.0110           0
     15376 MEMB     131      SAPE     H6X      HAL2     0.900000E-01   1.00800           0
     15377 MEMB     131      SAPE     H6Y      HAL2     0.900000E-01   1.00800           0
     15378 MEMB     131      SAPE     C37      CTL2    -0.180000       12.0110           0
     15379 MEMB     131      SAPE     H7X      HAL2     0.900000E-01   1.00800           0
     15380 MEMB     131      SAPE     H7Y      HAL2     0.900000E-01   1.00800           0
     15381 MEMB     131      SAPE     C38      CTL2    -0.180000       12.0110           0
     15382 MEMB     131      SAPE     H8X      HAL2     0.900000E-01   1.00800           0
     15383 MEMB     131      SAPE     H8Y      HAL2     0.900000E-01   1.00800           0
     15384 MEMB     131      SAPE     C39      CTL2    -0.180000       12.0110           0
     15385 MEMB     131      SAPE     H9X      HAL2     0.900000E-01   1.00800           0
     15386 MEMB     131      SAPE     H9Y      HAL2     0.900000E-01   1.00800           0
     15387 MEMB     131      SAPE     C310     CTL2    -0.180000       12.0110           0
     15388 MEMB     131      SAPE     H10X     HAL2     0.900000E-01   1.00800           0
     15389 MEMB     131      SAPE     H10Y     HAL2     0.900000E-01   1.00800           0
     15390 MEMB     131      SAPE     C311     CTL2    -0.180000       12.0110           0
     15391 MEMB     131      SAPE     H11X     HAL2     0.900000E-01   1.00800           0
     15392 MEMB     131      SAPE     H11Y     HAL2     0.900000E-01   1.00800           0
     15393 MEMB     131      SAPE     C312     CTL2    -0.180000       12.0110           0
     15394 MEMB     131      SAPE     H12X     HAL2     0.900000E-01   1.00800           0
     15395 MEMB     131      SAPE     H12Y     HAL2     0.900000E-01   1.00800           0
     15396 MEMB     131      SAPE     C313     CTL2    -0.180000       12.0110           0
     15397 MEMB     131      SAPE     H13X     HAL2     0.900000E-01   1.00800           0
     15398 MEMB     131      SAPE     H13Y     HAL2     0.900000E-01   1.00800           0
     15399 MEMB     131      SAPE     C314     CTL2    -0.180000       12.0110           0
     15400 MEMB     131      SAPE     H14X     HAL2     0.900000E-01   1.00800           0
     15401 MEMB     131      SAPE     H14Y     HAL2     0.900000E-01   1.00800           0
     15402 MEMB     131      SAPE     C315     CTL2    -0.180000       12.0110           0
     15403 MEMB     131      SAPE     H15X     HAL2     0.900000E-01   1.00800           0
     15404 MEMB     131      SAPE     H15Y     HAL2     0.900000E-01   1.00800           0
     15405 MEMB     131      SAPE     C316     CTL2    -0.180000       12.0110           0
     15406 MEMB     131      SAPE     H16X     HAL2     0.900000E-01   1.00800           0
     15407 MEMB     131      SAPE     H16Y     HAL2     0.900000E-01   1.00800           0
     15408 MEMB     131      SAPE     C317     CTL2    -0.180000       12.0110           0
     15409 MEMB     131      SAPE     H17X     HAL2     0.900000E-01   1.00800           0
     15410 MEMB     131      SAPE     H17Y     HAL2     0.900000E-01   1.00800           0
     15411 MEMB     131      SAPE     C318     CTL3    -0.270000       12.0110           0
     15412 MEMB     131      SAPE     H18X     HAL3     0.900000E-01   1.00800           0
     15413 MEMB     131      SAPE     H18Y     HAL3     0.900000E-01   1.00800           0
     15414 MEMB     131      SAPE     H18Z     HAL3     0.900000E-01   1.00800           0
     15415 MEMB     132      POPC     N        NTL     -0.600000       14.0070           0
     15416 MEMB     132      POPC     C12      CTL2    -0.100000       12.0110           0
     15417 MEMB     132      POPC     H12A     HL       0.250000       1.00800           0
     15418 MEMB     132      POPC     H12B     HL       0.250000       1.00800           0
     15419 MEMB     132      POPC     C13      CTL5    -0.350000       12.0110           0
     15420 MEMB     132      POPC     H13A     HL       0.250000       1.00800           0
     15421 MEMB     132      POPC     H13B     HL       0.250000       1.00800           0
     15422 MEMB     132      POPC     H13C     HL       0.250000       1.00800           0
     15423 MEMB     132      POPC     C14      CTL5    -0.350000       12.0110           0
     15424 MEMB     132      POPC     H14A     HL       0.250000       1.00800           0
     15425 MEMB     132      POPC     H14B     HL       0.250000       1.00800           0
     15426 MEMB     132      POPC     H14C     HL       0.250000       1.00800           0
     15427 MEMB     132      POPC     C15      CTL5    -0.350000       12.0110           0
     15428 MEMB     132      POPC     H15A     HL       0.250000       1.00800           0
     15429 MEMB     132      POPC     H15B     HL       0.250000       1.00800           0
     15430 MEMB     132      POPC     H15C     HL       0.250000       1.00800           0
     15431 MEMB     132      POPC     C11      CTL2    -0.800000E-01   12.0110           0
     15432 MEMB     132      POPC     H11A     HAL2     0.900000E-01   1.00800           0
     15433 MEMB     132      POPC     H11B     HAL2     0.900000E-01   1.00800           0
     15434 MEMB     132      POPC     P        PL        1.50000       30.9740           0
     15435 MEMB     132      POPC     O13      O2L     -0.780000       15.9994           0
     15436 MEMB     132      POPC     O14      O2L     -0.780000       15.9994           0
     15437 MEMB     132      POPC     O12      OSLP    -0.570000       15.9994           0
     15438 MEMB     132      POPC     O11      OSLP    -0.570000       15.9994           0
     15439 MEMB     132      POPC     C1       CTL2    -0.800000E-01   12.0110           0
     15440 MEMB     132      POPC     HA       HAL2     0.900000E-01   1.00800           0
     15441 MEMB     132      POPC     HB       HAL2     0.900000E-01   1.00800           0
     15442 MEMB     132      POPC     C2       CTL1     0.170000       12.0110           0
     15443 MEMB     132      POPC     HS       HAL1     0.900000E-01   1.00800           0
     15444 MEMB     132      POPC     O21      OSL     -0.490000       15.9994           0
     15445 MEMB     132      POPC     C21      CL       0.900000       12.0110           0
     15446 MEMB     132      POPC     O22      OBL     -0.630000       15.9994           0
     15447 MEMB     132      POPC     C22      CTL2    -0.220000       12.0110           0
     15448 MEMB     132      POPC     H2R      HAL2     0.900000E-01   1.00800           0
     15449 MEMB     132      POPC     H2S      HAL2     0.900000E-01   1.00800           0
     15450 MEMB     132      POPC     C3       CTL2     0.800000E-01   12.0110           0
     15451 MEMB     132      POPC     HX       HAL2     0.900000E-01   1.00800           0
     15452 MEMB     132      POPC     HY       HAL2     0.900000E-01   1.00800           0
     15453 MEMB     132      POPC     O31      OSL     -0.490000       15.9994           0
     15454 MEMB     132      POPC     C31      CL       0.900000       12.0110           0
     15455 MEMB     132      POPC     O32      OBL     -0.630000       15.9994           0
     15456 MEMB     132      POPC     C32      CTL2    -0.220000       12.0110           0
     15457 MEMB     132      POPC     H2X      HAL2     0.900000E-01   1.00800           0
     15458 MEMB     132      POPC     H2Y      HAL2     0.900000E-01   1.00800           0
     15459 MEMB     132      POPC     C23      CTL2    -0.180000       12.0110           0
     15460 MEMB     132      POPC     H3R      HAL2     0.900000E-01   1.00800           0
     15461 MEMB     132      POPC     H3S      HAL2     0.900000E-01   1.00800           0
     15462 MEMB     132      POPC     C24      CTL2    -0.180000       12.0110           0
     15463 MEMB     132      POPC     H4R      HAL2     0.900000E-01   1.00800           0
     15464 MEMB     132      POPC     H4S      HAL2     0.900000E-01   1.00800           0
     15465 MEMB     132      POPC     C25      CTL2    -0.180000       12.0110           0
     15466 MEMB     132      POPC     H5R      HAL2     0.900000E-01   1.00800           0
     15467 MEMB     132      POPC     H5S      HAL2     0.900000E-01   1.00800           0
     15468 MEMB     132      POPC     C26      CTL2    -0.180000       12.0110           0
     15469 MEMB     132      POPC     H6R      HAL2     0.900000E-01   1.00800           0
     15470 MEMB     132      POPC     H6S      HAL2     0.900000E-01   1.00800           0
     15471 MEMB     132      POPC     C27      CTL2    -0.180000       12.0110           0
     15472 MEMB     132      POPC     H7R      HAL2     0.900000E-01   1.00800           0
     15473 MEMB     132      POPC     H7S      HAL2     0.900000E-01   1.00800           0
     15474 MEMB     132      POPC     C28      CTL2    -0.180000       12.0110           0
     15475 MEMB     132      POPC     H8R      HAL2     0.900000E-01   1.00800           0
     15476 MEMB     132      POPC     H8S      HAL2     0.900000E-01   1.00800           0
     15477 MEMB     132      POPC     C29      CEL1    -0.150000       12.0110           0
     15478 MEMB     132      POPC     H91      HEL1     0.150000       1.00800           0
     15479 MEMB     132      POPC     C210     CEL1    -0.150000       12.0110           0
     15480 MEMB     132      POPC     H101     HEL1     0.150000       1.00800           0
     15481 MEMB     132      POPC     C211     CTL2    -0.180000       12.0110           0
     15482 MEMB     132      POPC     H11R     HAL2     0.900000E-01   1.00800           0
     15483 MEMB     132      POPC     H11S     HAL2     0.900000E-01   1.00800           0
     15484 MEMB     132      POPC     C212     CTL2    -0.180000       12.0110           0
     15485 MEMB     132      POPC     H12R     HAL2     0.900000E-01   1.00800           0
     15486 MEMB     132      POPC     H12S     HAL2     0.900000E-01   1.00800           0
     15487 MEMB     132      POPC     C213     CTL2    -0.180000       12.0110           0
     15488 MEMB     132      POPC     H13R     HAL2     0.900000E-01   1.00800           0
     15489 MEMB     132      POPC     H13S     HAL2     0.900000E-01   1.00800           0
     15490 MEMB     132      POPC     C214     CTL2    -0.180000       12.0110           0
     15491 MEMB     132      POPC     H14R     HAL2     0.900000E-01   1.00800           0
     15492 MEMB     132      POPC     H14S     HAL2     0.900000E-01   1.00800           0
     15493 MEMB     132      POPC     C215     CTL2    -0.180000       12.0110           0
     15494 MEMB     132      POPC     H15R     HAL2     0.900000E-01   1.00800           0
     15495 MEMB     132      POPC     H15S     HAL2     0.900000E-01   1.00800           0
     15496 MEMB     132      POPC     C216     CTL2    -0.180000       12.0110           0
     15497 MEMB     132      POPC     H16R     HAL2     0.900000E-01   1.00800           0
     15498 MEMB     132      POPC     H16S     HAL2     0.900000E-01   1.00800           0
     15499 MEMB     132      POPC     C217     CTL2    -0.180000       12.0110           0
     15500 MEMB     132      POPC     H17R     HAL2     0.900000E-01   1.00800           0
     15501 MEMB     132      POPC     H17S     HAL2     0.900000E-01   1.00800           0
     15502 MEMB     132      POPC     C218     CTL3    -0.270000       12.0110           0
     15503 MEMB     132      POPC     H18R     HAL3     0.900000E-01   1.00800           0
     15504 MEMB     132      POPC     H18S     HAL3     0.900000E-01   1.00800           0
     15505 MEMB     132      POPC     H18T     HAL3     0.900000E-01   1.00800           0
     15506 MEMB     132      POPC     C33      CTL2    -0.180000       12.0110           0
     15507 MEMB     132      POPC     H3X      HAL2     0.900000E-01   1.00800           0
     15508 MEMB     132      POPC     H3Y      HAL2     0.900000E-01   1.00800           0
     15509 MEMB     132      POPC     C34      CTL2    -0.180000       12.0110           0
     15510 MEMB     132      POPC     H4X      HAL2     0.900000E-01   1.00800           0
     15511 MEMB     132      POPC     H4Y      HAL2     0.900000E-01   1.00800           0
     15512 MEMB     132      POPC     C35      CTL2    -0.180000       12.0110           0
     15513 MEMB     132      POPC     H5X      HAL2     0.900000E-01   1.00800           0
     15514 MEMB     132      POPC     H5Y      HAL2     0.900000E-01   1.00800           0
     15515 MEMB     132      POPC     C36      CTL2    -0.180000       12.0110           0
     15516 MEMB     132      POPC     H6X      HAL2     0.900000E-01   1.00800           0
     15517 MEMB     132      POPC     H6Y      HAL2     0.900000E-01   1.00800           0
     15518 MEMB     132      POPC     C37      CTL2    -0.180000       12.0110           0
     15519 MEMB     132      POPC     H7X      HAL2     0.900000E-01   1.00800           0
     15520 MEMB     132      POPC     H7Y      HAL2     0.900000E-01   1.00800           0
     15521 MEMB     132      POPC     C38      CTL2    -0.180000       12.0110           0
     15522 MEMB     132      POPC     H8X      HAL2     0.900000E-01   1.00800           0
     15523 MEMB     132      POPC     H8Y      HAL2     0.900000E-01   1.00800           0
     15524 MEMB     132      POPC     C39      CTL2    -0.180000       12.0110           0
     15525 MEMB     132      POPC     H9X      HAL2     0.900000E-01   1.00800           0
     15526 MEMB     132      POPC     H9Y      HAL2     0.900000E-01   1.00800           0
     15527 MEMB     132      POPC     C310     CTL2    -0.180000       12.0110           0
     15528 MEMB     132      POPC     H10X     HAL2     0.900000E-01   1.00800           0
     15529 MEMB     132      POPC     H10Y     HAL2     0.900000E-01   1.00800           0
     15530 MEMB     132      POPC     C311     CTL2    -0.180000       12.0110           0
     15531 MEMB     132      POPC     H11X     HAL2     0.900000E-01   1.00800           0
     15532 MEMB     132      POPC     H11Y     HAL2     0.900000E-01   1.00800           0
     15533 MEMB     132      POPC     C312     CTL2    -0.180000       12.0110           0
     15534 MEMB     132      POPC     H12X     HAL2     0.900000E-01   1.00800           0
     15535 MEMB     132      POPC     H12Y     HAL2     0.900000E-01   1.00800           0
     15536 MEMB     132      POPC     C313     CTL2    -0.180000       12.0110           0
     15537 MEMB     132      POPC     H13X     HAL2     0.900000E-01   1.00800           0
     15538 MEMB     132      POPC     H13Y     HAL2     0.900000E-01   1.00800           0
     15539 MEMB     132      POPC     C314     CTL2    -0.180000       12.0110           0
     15540 MEMB     132      POPC     H14X     HAL2     0.900000E-01   1.00800           0
     15541 MEMB     132      POPC     H14Y     HAL2     0.900000E-01   1.00800           0
     15542 MEMB     132      POPC     C315     CTL2    -0.180000       12.0110           0
     15543 MEMB     132      POPC     H15X     HAL2     0.900000E-01   1.00800           0
     15544 MEMB     132      POPC     H15Y     HAL2     0.900000E-01   1.00800           0
     15545 MEMB     132      POPC     C316     CTL3    -0.270000       12.0110           0
     15546 MEMB     132      POPC     H16X     HAL3     0.900000E-01   1.00800           0
     15547 MEMB     132      POPC     H16Y     HAL3     0.900000E-01   1.00800           0
     15548 MEMB     132      POPC     H16Z     HAL3     0.900000E-01   1.00800           0
     15549 MEMB     133      CHL1     C3       CRL1     0.140000       12.0110           0
     15550 MEMB     133      CHL1     H3       HGA1     0.900000E-01   1.00800           0
     15551 MEMB     133      CHL1     O3       OHL     -0.660000       15.9994           0
     15552 MEMB     133      CHL1     H3'      HOL      0.430000       1.00800           0
     15553 MEMB     133      CHL1     C4       CRL2    -0.180000       12.0110           0
     15554 MEMB     133      CHL1     H4A      HGA2     0.900000E-01   1.00800           0
     15555 MEMB     133      CHL1     H4B      HGA2     0.900000E-01   1.00800           0
     15556 MEMB     133      CHL1     C5       CEL1      0.00000       12.0110           0
     15557 MEMB     133      CHL1     C6       CEL1    -0.150000       12.0110           0
     15558 MEMB     133      CHL1     H6       HEL1     0.150000       1.00800           0
     15559 MEMB     133      CHL1     C7       CRL2    -0.180000       12.0110           0
     15560 MEMB     133      CHL1     H7A      HGA2     0.900000E-01   1.00800           0
     15561 MEMB     133      CHL1     H7B      HGA2     0.900000E-01   1.00800           0
     15562 MEMB     133      CHL1     C8       CRL1    -0.900000E-01   12.0110           0
     15563 MEMB     133      CHL1     H8       HGA1     0.900000E-01   1.00800           0
     15564 MEMB     133      CHL1     C14      CRL1    -0.900000E-01   12.0110           0
     15565 MEMB     133      CHL1     H14      HGA1     0.900000E-01   1.00800           0
     15566 MEMB     133      CHL1     C15      CRL2    -0.180000       12.0110           0
     15567 MEMB     133      CHL1     H15A     HGA2     0.900000E-01   1.00800           0
     15568 MEMB     133      CHL1     H15B     HGA2     0.900000E-01   1.00800           0
     15569 MEMB     133      CHL1     C16      CRL2    -0.180000       12.0110           0
     15570 MEMB     133      CHL1     H16A     HGA2     0.900000E-01   1.00800           0
     15571 MEMB     133      CHL1     H16B     HGA2     0.900000E-01   1.00800           0
     15572 MEMB     133      CHL1     C17      CRL1    -0.900000E-01   12.0110           0
     15573 MEMB     133      CHL1     H17      HGA1     0.900000E-01   1.00800           0
     15574 MEMB     133      CHL1     C13      CRL1      0.00000       12.0110           0
     15575 MEMB     133      CHL1     C18      CTL3    -0.270000       12.0110           0
     15576 MEMB     133      CHL1     H18A     HAL3     0.900000E-01   1.00800           0
     15577 MEMB     133      CHL1     H18B     HAL3     0.900000E-01   1.00800           0
     15578 MEMB     133      CHL1     H18C     HAL3     0.900000E-01   1.00800           0
     15579 MEMB     133      CHL1     C12      CRL2    -0.180000       12.0110           0
     15580 MEMB     133      CHL1     H12A     HGA2     0.900000E-01   1.00800           0
     15581 MEMB     133      CHL1     H12B     HGA2     0.900000E-01   1.00800           0
     15582 MEMB     133      CHL1     C11      CRL2    -0.180000       12.0110           0
     15583 MEMB     133      CHL1     H11A     HGA2     0.900000E-01   1.00800           0
     15584 MEMB     133      CHL1     H11B     HGA2     0.900000E-01   1.00800           0
     15585 MEMB     133      CHL1     C9       CRL1    -0.900000E-01   12.0110           0
     15586 MEMB     133      CHL1     H9       HGA1     0.900000E-01   1.00800           0
     15587 MEMB     133      CHL1     C10      CRL1      0.00000       12.0110           0
     15588 MEMB     133      CHL1     C19      CTL3    -0.270000       12.0110           0
     15589 MEMB     133      CHL1     H19A     HAL3     0.900000E-01   1.00800           0
     15590 MEMB     133      CHL1     H19B     HAL3     0.900000E-01   1.00800           0
     15591 MEMB     133      CHL1     H19C     HAL3     0.900000E-01   1.00800           0
     15592 MEMB     133      CHL1     C1       CRL2    -0.180000       12.0110           0
     15593 MEMB     133      CHL1     H1A      HGA2     0.900000E-01   1.00800           0
     15594 MEMB     133      CHL1     H1B      HGA2     0.900000E-01   1.00800           0
     15595 MEMB     133      CHL1     C2       CRL2    -0.180000       12.0110           0
     15596 MEMB     133      CHL1     H2A      HGA2     0.900000E-01   1.00800           0
     15597 MEMB     133      CHL1     H2B      HGA2     0.900000E-01   1.00800           0
     15598 MEMB     133      CHL1     C20      CTL1    -0.900000E-01   12.0110           0
     15599 MEMB     133      CHL1     H20      HAL1     0.900000E-01   1.00800           0
     15600 MEMB     133      CHL1     C21      CTL3    -0.270000       12.0110           0
     15601 MEMB     133      CHL1     H21A     HAL3     0.900000E-01   1.00800           0
     15602 MEMB     133      CHL1     H21B     HAL3     0.900000E-01   1.00800           0
     15603 MEMB     133      CHL1     H21C     HAL3     0.900000E-01   1.00800           0
     15604 MEMB     133      CHL1     C22      CTL2    -0.180000       12.0110           0
     15605 MEMB     133      CHL1     H22A     HAL2     0.900000E-01   1.00800           0
     15606 MEMB     133      CHL1     H22B     HAL2     0.900000E-01   1.00800           0
     15607 MEMB     133      CHL1     C23      CTL2    -0.180000       12.0110           0
     15608 MEMB     133      CHL1     H23A     HAL2     0.900000E-01   1.00800           0
     15609 MEMB     133      CHL1     H23B     HAL2     0.900000E-01   1.00800           0
     15610 MEMB     133      CHL1     C24      CTL2    -0.180000       12.0110           0
     15611 MEMB     133      CHL1     H24A     HAL2     0.900000E-01   1.00800           0
     15612 MEMB     133      CHL1     H24B     HAL2     0.900000E-01   1.00800           0
     15613 MEMB     133      CHL1     C25      CTL1    -0.900000E-01   12.0110           0
     15614 MEMB     133      CHL1     H25      HAL1     0.900000E-01   1.00800           0
     15615 MEMB     133      CHL1     C26      CTL3    -0.270000       12.0110           0
     15616 MEMB     133      CHL1     H26A     HAL3     0.900000E-01   1.00800           0
     15617 MEMB     133      CHL1     H26B     HAL3     0.900000E-01   1.00800           0
     15618 MEMB     133      CHL1     H26C     HAL3     0.900000E-01   1.00800           0
     15619 MEMB     133      CHL1     C27      CTL3    -0.270000       12.0110           0
     15620 MEMB     133      CHL1     H27A     HAL3     0.900000E-01   1.00800           0
     15621 MEMB     133      CHL1     H27B     HAL3     0.900000E-01   1.00800           0
     15622 MEMB     133      CHL1     H27C     HAL3     0.900000E-01   1.00800           0
     15623 MEMB     134      CHL1     C3       CRL1     0.140000       12.0110           0
     15624 MEMB     134      CHL1     H3       HGA1     0.900000E-01   1.00800           0
     15625 MEMB     134      CHL1     O3       OHL     -0.660000       15.9994           0
     15626 MEMB     134      CHL1     H3'      HOL      0.430000       1.00800           0
     15627 MEMB     134      CHL1     C4       CRL2    -0.180000       12.0110           0
     15628 MEMB     134      CHL1     H4A      HGA2     0.900000E-01   1.00800           0
     15629 MEMB     134      CHL1     H4B      HGA2     0.900000E-01   1.00800           0
     15630 MEMB     134      CHL1     C5       CEL1      0.00000       12.0110           0
     15631 MEMB     134      CHL1     C6       CEL1    -0.150000       12.0110           0
     15632 MEMB     134      CHL1     H6       HEL1     0.150000       1.00800           0
     15633 MEMB     134      CHL1     C7       CRL2    -0.180000       12.0110           0
     15634 MEMB     134      CHL1     H7A      HGA2     0.900000E-01   1.00800           0
     15635 MEMB     134      CHL1     H7B      HGA2     0.900000E-01   1.00800           0
     15636 MEMB     134      CHL1     C8       CRL1    -0.900000E-01   12.0110           0
     15637 MEMB     134      CHL1     H8       HGA1     0.900000E-01   1.00800           0
     15638 MEMB     134      CHL1     C14      CRL1    -0.900000E-01   12.0110           0
     15639 MEMB     134      CHL1     H14      HGA1     0.900000E-01   1.00800           0
     15640 MEMB     134      CHL1     C15      CRL2    -0.180000       12.0110           0
     15641 MEMB     134      CHL1     H15A     HGA2     0.900000E-01   1.00800           0
     15642 MEMB     134      CHL1     H15B     HGA2     0.900000E-01   1.00800           0
     15643 MEMB     134      CHL1     C16      CRL2    -0.180000       12.0110           0
     15644 MEMB     134      CHL1     H16A     HGA2     0.900000E-01   1.00800           0
     15645 MEMB     134      CHL1     H16B     HGA2     0.900000E-01   1.00800           0
     15646 MEMB     134      CHL1     C17      CRL1    -0.900000E-01   12.0110           0
     15647 MEMB     134      CHL1     H17      HGA1     0.900000E-01   1.00800           0
     15648 MEMB     134      CHL1     C13      CRL1      0.00000       12.0110           0
     15649 MEMB     134      CHL1     C18      CTL3    -0.270000       12.0110           0
     15650 MEMB     134      CHL1     H18A     HAL3     0.900000E-01   1.00800           0
     15651 MEMB     134      CHL1     H18B     HAL3     0.900000E-01   1.00800           0
     15652 MEMB     134      CHL1     H18C     HAL3     0.900000E-01   1.00800           0
     15653 MEMB     134      CHL1     C12      CRL2    -0.180000       12.0110           0
     15654 MEMB     134      CHL1     H12A     HGA2     0.900000E-01   1.00800           0
     15655 MEMB     134      CHL1     H12B     HGA2     0.900000E-01   1.00800           0
     15656 MEMB     134      CHL1     C11      CRL2    -0.180000       12.0110           0
     15657 MEMB     134      CHL1     H11A     HGA2     0.900000E-01   1.00800           0
     15658 MEMB     134      CHL1     H11B     HGA2     0.900000E-01   1.00800           0
     15659 MEMB     134      CHL1     C9       CRL1    -0.900000E-01   12.0110           0
     15660 MEMB     134      CHL1     H9       HGA1     0.900000E-01   1.00800           0
     15661 MEMB     134      CHL1     C10      CRL1      0.00000       12.0110           0
     15662 MEMB     134      CHL1     C19      CTL3    -0.270000       12.0110           0
     15663 MEMB     134      CHL1     H19A     HAL3     0.900000E-01   1.00800           0
     15664 MEMB     134      CHL1     H19B     HAL3     0.900000E-01   1.00800           0
     15665 MEMB     134      CHL1     H19C     HAL3     0.900000E-01   1.00800           0
     15666 MEMB     134      CHL1     C1       CRL2    -0.180000       12.0110           0
     15667 MEMB     134      CHL1     H1A      HGA2     0.900000E-01   1.00800           0
     15668 MEMB     134      CHL1     H1B      HGA2     0.900000E-01   1.00800           0
     15669 MEMB     134      CHL1     C2       CRL2    -0.180000       12.0110           0
     15670 MEMB     134      CHL1     H2A      HGA2     0.900000E-01   1.00800           0
     15671 MEMB     134      CHL1     H2B      HGA2     0.900000E-01   1.00800           0
     15672 MEMB     134      CHL1     C20      CTL1    -0.900000E-01   12.0110           0
     15673 MEMB     134      CHL1     H20      HAL1     0.900000E-01   1.00800           0
     15674 MEMB     134      CHL1     C21      CTL3    -0.270000       12.0110           0
     15675 MEMB     134      CHL1     H21A     HAL3     0.900000E-01   1.00800           0
     15676 MEMB     134      CHL1     H21B     HAL3     0.900000E-01   1.00800           0
     15677 MEMB     134      CHL1     H21C     HAL3     0.900000E-01   1.00800           0
     15678 MEMB     134      CHL1     C22      CTL2    -0.180000       12.0110           0
     15679 MEMB     134      CHL1     H22A     HAL2     0.900000E-01   1.00800           0
     15680 MEMB     134      CHL1     H22B     HAL2     0.900000E-01   1.00800           0
     15681 MEMB     134      CHL1     C23      CTL2    -0.180000       12.0110           0
     15682 MEMB     134      CHL1     H23A     HAL2     0.900000E-01   1.00800           0
     15683 MEMB     134      CHL1     H23B     HAL2     0.900000E-01   1.00800           0
     15684 MEMB     134      CHL1     C24      CTL2    -0.180000       12.0110           0
     15685 MEMB     134      CHL1     H24A     HAL2     0.900000E-01   1.00800           0
     15686 MEMB     134      CHL1     H24B     HAL2     0.900000E-01   1.00800           0
     15687 MEMB     134      CHL1     C25      CTL1    -0.900000E-01   12.0110           0
     15688 MEMB     134      CHL1     H25      HAL1     0.900000E-01   1.00800           0
     15689 MEMB     134      CHL1     C26      CTL3    -0.270000       12.0110           0
     15690 MEMB     134      CHL1     H26A     HAL3     0.900000E-01   1.00800           0
     15691 MEMB     134      CHL1     H26B     HAL3     0.900000E-01   1.00800           0
     15692 MEMB     134      CHL1     H26C     HAL3     0.900000E-01   1.00800           0
     15693 MEMB     134      CHL1     C27      CTL3    -0.270000       12.0110           0
     15694 MEMB     134      CHL1     H27A     HAL3     0.900000E-01   1.00800           0
     15695 MEMB     134      CHL1     H27B     HAL3     0.900000E-01   1.00800           0
     15696 MEMB     134      CHL1     H27C     HAL3     0.900000E-01   1.00800           0
     15697 MEMB     135      CHL1     C3       CRL1     0.140000       12.0110           0
     15698 MEMB     135      CHL1     H3       HGA1     0.900000E-01   1.00800           0
     15699 MEMB     135      CHL1     O3       OHL     -0.660000       15.9994           0
     15700 MEMB     135      CHL1     H3'      HOL      0.430000       1.00800           0
     15701 MEMB     135      CHL1     C4       CRL2    -0.180000       12.0110           0
     15702 MEMB     135      CHL1     H4A      HGA2     0.900000E-01   1.00800           0
     15703 MEMB     135      CHL1     H4B      HGA2     0.900000E-01   1.00800           0
     15704 MEMB     135      CHL1     C5       CEL1      0.00000       12.0110           0
     15705 MEMB     135      CHL1     C6       CEL1    -0.150000       12.0110           0
     15706 MEMB     135      CHL1     H6       HEL1     0.150000       1.00800           0
     15707 MEMB     135      CHL1     C7       CRL2    -0.180000       12.0110           0
     15708 MEMB     135      CHL1     H7A      HGA2     0.900000E-01   1.00800           0
     15709 MEMB     135      CHL1     H7B      HGA2     0.900000E-01   1.00800           0
     15710 MEMB     135      CHL1     C8       CRL1    -0.900000E-01   12.0110           0
     15711 MEMB     135      CHL1     H8       HGA1     0.900000E-01   1.00800           0
     15712 MEMB     135      CHL1     C14      CRL1    -0.900000E-01   12.0110           0
     15713 MEMB     135      CHL1     H14      HGA1     0.900000E-01   1.00800           0
     15714 MEMB     135      CHL1     C15      CRL2    -0.180000       12.0110           0
     15715 MEMB     135      CHL1     H15A     HGA2     0.900000E-01   1.00800           0
     15716 MEMB     135      CHL1     H15B     HGA2     0.900000E-01   1.00800           0
     15717 MEMB     135      CHL1     C16      CRL2    -0.180000       12.0110           0
     15718 MEMB     135      CHL1     H16A     HGA2     0.900000E-01   1.00800           0
     15719 MEMB     135      CHL1     H16B     HGA2     0.900000E-01   1.00800           0
     15720 MEMB     135      CHL1     C17      CRL1    -0.900000E-01   12.0110           0
     15721 MEMB     135      CHL1     H17      HGA1     0.900000E-01   1.00800           0
     15722 MEMB     135      CHL1     C13      CRL1      0.00000       12.0110           0
     15723 MEMB     135      CHL1     C18      CTL3    -0.270000       12.0110           0
     15724 MEMB     135      CHL1     H18A     HAL3     0.900000E-01   1.00800           0
     15725 MEMB     135      CHL1     H18B     HAL3     0.900000E-01   1.00800           0
     15726 MEMB     135      CHL1     H18C     HAL3     0.900000E-01   1.00800           0
     15727 MEMB     135      CHL1     C12      CRL2    -0.180000       12.0110           0
     15728 MEMB     135      CHL1     H12A     HGA2     0.900000E-01   1.00800           0
     15729 MEMB     135      CHL1     H12B     HGA2     0.900000E-01   1.00800           0
     15730 MEMB     135      CHL1     C11      CRL2    -0.180000       12.0110           0
     15731 MEMB     135      CHL1     H11A     HGA2     0.900000E-01   1.00800           0
     15732 MEMB     135      CHL1     H11B     HGA2     0.900000E-01   1.00800           0
     15733 MEMB     135      CHL1     C9       CRL1    -0.900000E-01   12.0110           0
     15734 MEMB     135      CHL1     H9       HGA1     0.900000E-01   1.00800           0
     15735 MEMB     135      CHL1     C10      CRL1      0.00000       12.0110           0
     15736 MEMB     135      CHL1     C19      CTL3    -0.270000       12.0110           0
     15737 MEMB     135      CHL1     H19A     HAL3     0.900000E-01   1.00800           0
     15738 MEMB     135      CHL1     H19B     HAL3     0.900000E-01   1.00800           0
     15739 MEMB     135      CHL1     H19C     HAL3     0.900000E-01   1.00800           0
     15740 MEMB     135      CHL1     C1       CRL2    -0.180000       12.0110           0
     15741 MEMB     135      CHL1     H1A      HGA2     0.900000E-01   1.00800           0
     15742 MEMB     135      CHL1     H1B      HGA2     0.900000E-01   1.00800           0
     15743 MEMB     135      CHL1     C2       CRL2    -0.180000       12.0110           0
     15744 MEMB     135      CHL1     H2A      HGA2     0.900000E-01   1.00800           0
     15745 MEMB     135      CHL1     H2B      HGA2     0.900000E-01   1.00800           0
     15746 MEMB     135      CHL1     C20      CTL1    -0.900000E-01   12.0110           0
     15747 MEMB     135      CHL1     H20      HAL1     0.900000E-01   1.00800           0
     15748 MEMB     135      CHL1     C21      CTL3    -0.270000       12.0110           0
     15749 MEMB     135      CHL1     H21A     HAL3     0.900000E-01   1.00800           0
     15750 MEMB     135      CHL1     H21B     HAL3     0.900000E-01   1.00800           0
     15751 MEMB     135      CHL1     H21C     HAL3     0.900000E-01   1.00800           0
     15752 MEMB     135      CHL1     C22      CTL2    -0.180000       12.0110           0
     15753 MEMB     135      CHL1     H22A     HAL2     0.900000E-01   1.00800           0
     15754 MEMB     135      CHL1     H22B     HAL2     0.900000E-01   1.00800           0
     15755 MEMB     135      CHL1     C23      CTL2    -0.180000       12.0110           0
     15756 MEMB     135      CHL1     H23A     HAL2     0.900000E-01   1.00800           0
     15757 MEMB     135      CHL1     H23B     HAL2     0.900000E-01   1.00800           0
     15758 MEMB     135      CHL1     C24      CTL2    -0.180000       12.0110           0
     15759 MEMB     135      CHL1     H24A     HAL2     0.900000E-01   1.00800           0
     15760 MEMB     135      CHL1     H24B     HAL2     0.900000E-01   1.00800           0
     15761 MEMB     135      CHL1     C25      CTL1    -0.900000E-01   12.0110           0
     15762 MEMB     135      CHL1     H25      HAL1     0.900000E-01   1.00800           0
     15763 MEMB     135      CHL1     C26      CTL3    -0.270000       12.0110           0
     15764 MEMB     135      CHL1     H26A     HAL3     0.900000E-01   1.00800           0
     15765 MEMB     135      CHL1     H26B     HAL3     0.900000E-01   1.00800           0
     15766 MEMB     135      CHL1     H26C     HAL3     0.900000E-01   1.00800           0
     15767 MEMB     135      CHL1     C27      CTL3    -0.270000       12.0110           0
     15768 MEMB     135      CHL1     H27A     HAL3     0.900000E-01   1.00800           0
     15769 MEMB     135      CHL1     H27B     HAL3     0.900000E-01   1.00800           0
     15770 MEMB     135      CHL1     H27C     HAL3     0.900000E-01   1.00800           0
     15771 MEMB     136      SOPE     N        NH3L    -0.300000       14.0070           0
     15772 MEMB     136      SOPE     HN1      HCL      0.330000       1.00800           0
     15773 MEMB     136      SOPE     HN2      HCL      0.330000       1.00800           0
     15774 MEMB     136      SOPE     HN3      HCL      0.330000       1.00800           0
     15775 MEMB     136      SOPE     C12      CTL2     0.130000       12.0110           0
     15776 MEMB     136      SOPE     H12A     HAL2     0.900000E-01   1.00800           0
     15777 MEMB     136      SOPE     H12B     HAL2     0.900000E-01   1.00800           0
     15778 MEMB     136      SOPE     C11      CTL2    -0.800000E-01   12.0110           0
     15779 MEMB     136      SOPE     H11A     HAL2     0.900000E-01   1.00800           0
     15780 MEMB     136      SOPE     H11B     HAL2     0.900000E-01   1.00800           0
     15781 MEMB     136      SOPE     P        PL        1.50000       30.9740           0
     15782 MEMB     136      SOPE     O13      O2L     -0.780000       15.9994           0
     15783 MEMB     136      SOPE     O14      O2L     -0.780000       15.9994           0
     15784 MEMB     136      SOPE     O12      OSLP    -0.570000       15.9994           0
     15785 MEMB     136      SOPE     O11      OSLP    -0.570000       15.9994           0
     15786 MEMB     136      SOPE     C1       CTL2    -0.800000E-01   12.0110           0
     15787 MEMB     136      SOPE     HA       HAL2     0.900000E-01   1.00800           0
     15788 MEMB     136      SOPE     HB       HAL2     0.900000E-01   1.00800           0
     15789 MEMB     136      SOPE     C2       CTL1     0.170000       12.0110           0
     15790 MEMB     136      SOPE     HS       HAL1     0.900000E-01   1.00800           0
     15791 MEMB     136      SOPE     O21      OSL     -0.490000       15.9994           0
     15792 MEMB     136      SOPE     C21      CL       0.900000       12.0110           0
     15793 MEMB     136      SOPE     O22      OBL     -0.630000       15.9994           0
     15794 MEMB     136      SOPE     C22      CTL2    -0.220000       12.0110           0
     15795 MEMB     136      SOPE     H2R      HAL2     0.900000E-01   1.00800           0
     15796 MEMB     136      SOPE     H2S      HAL2     0.900000E-01   1.00800           0
     15797 MEMB     136      SOPE     C3       CTL2     0.800000E-01   12.0110           0
     15798 MEMB     136      SOPE     HX       HAL2     0.900000E-01   1.00800           0
     15799 MEMB     136      SOPE     HY       HAL2     0.900000E-01   1.00800           0
     15800 MEMB     136      SOPE     O31      OSL     -0.490000       15.9994           0
     15801 MEMB     136      SOPE     C31      CL       0.900000       12.0110           0
     15802 MEMB     136      SOPE     O32      OBL     -0.630000       15.9994           0
     15803 MEMB     136      SOPE     C32      CTL2    -0.220000       12.0110           0
     15804 MEMB     136      SOPE     H2X      HAL2     0.900000E-01   1.00800           0
     15805 MEMB     136      SOPE     H2Y      HAL2     0.900000E-01   1.00800           0
     15806 MEMB     136      SOPE     C23      CTL2    -0.180000       12.0110           0
     15807 MEMB     136      SOPE     H3R      HAL2     0.900000E-01   1.00800           0
     15808 MEMB     136      SOPE     H3S      HAL2     0.900000E-01   1.00800           0
     15809 MEMB     136      SOPE     C24      CTL2    -0.180000       12.0110           0
     15810 MEMB     136      SOPE     H4R      HAL2     0.900000E-01   1.00800           0
     15811 MEMB     136      SOPE     H4S      HAL2     0.900000E-01   1.00800           0
     15812 MEMB     136      SOPE     C25      CTL2    -0.180000       12.0110           0
     15813 MEMB     136      SOPE     H5R      HAL2     0.900000E-01   1.00800           0
     15814 MEMB     136      SOPE     H5S      HAL2     0.900000E-01   1.00800           0
     15815 MEMB     136      SOPE     C26      CTL2    -0.180000       12.0110           0
     15816 MEMB     136      SOPE     H6R      HAL2     0.900000E-01   1.00800           0
     15817 MEMB     136      SOPE     H6S      HAL2     0.900000E-01   1.00800           0
     15818 MEMB     136      SOPE     C27      CTL2    -0.180000       12.0110           0
     15819 MEMB     136      SOPE     H7R      HAL2     0.900000E-01   1.00800           0
     15820 MEMB     136      SOPE     H7S      HAL2     0.900000E-01   1.00800           0
     15821 MEMB     136      SOPE     C28      CTL2    -0.180000       12.0110           0
     15822 MEMB     136      SOPE     H8R      HAL2     0.900000E-01   1.00800           0
     15823 MEMB     136      SOPE     H8S      HAL2     0.900000E-01   1.00800           0
     15824 MEMB     136      SOPE     C29      CEL1    -0.150000       12.0110           0
     15825 MEMB     136      SOPE     H91      HEL1     0.150000       1.00800           0
     15826 MEMB     136      SOPE     C210     CEL1    -0.150000       12.0110           0
     15827 MEMB     136      SOPE     H101     HEL1     0.150000       1.00800           0
     15828 MEMB     136      SOPE     C211     CTL2    -0.180000       12.0110           0
     15829 MEMB     136      SOPE     H11R     HAL2     0.900000E-01   1.00800           0
     15830 MEMB     136      SOPE     H11S     HAL2     0.900000E-01   1.00800           0
     15831 MEMB     136      SOPE     C212     CTL2    -0.180000       12.0110           0
     15832 MEMB     136      SOPE     H12R     HAL2     0.900000E-01   1.00800           0
     15833 MEMB     136      SOPE     H12S     HAL2     0.900000E-01   1.00800           0
     15834 MEMB     136      SOPE     C213     CTL2    -0.180000       12.0110           0
     15835 MEMB     136      SOPE     H13R     HAL2     0.900000E-01   1.00800           0
     15836 MEMB     136      SOPE     H13S     HAL2     0.900000E-01   1.00800           0
     15837 MEMB     136      SOPE     C214     CTL2    -0.180000       12.0110           0
     15838 MEMB     136      SOPE     H14R     HAL2     0.900000E-01   1.00800           0
     15839 MEMB     136      SOPE     H14S     HAL2     0.900000E-01   1.00800           0
     15840 MEMB     136      SOPE     C215     CTL2    -0.180000       12.0110           0
     15841 MEMB     136      SOPE     H15R     HAL2     0.900000E-01   1.00800           0
     15842 MEMB     136      SOPE     H15S     HAL2     0.900000E-01   1.00800           0
     15843 MEMB     136      SOPE     C216     CTL2    -0.180000       12.0110           0
     15844 MEMB     136      SOPE     H16R     HAL2     0.900000E-01   1.00800           0
     15845 MEMB     136      SOPE     H16S     HAL2     0.900000E-01   1.00800           0
     15846 MEMB     136      SOPE     C217     CTL2    -0.180000       12.0110           0
     15847 MEMB     136      SOPE     H17R     HAL2     0.900000E-01   1.00800           0
     15848 MEMB     136      SOPE     H17S     HAL2     0.900000E-01   1.00800           0
     15849 MEMB     136      SOPE     C218     CTL3    -0.270000       12.0110           0
     15850 MEMB     136      SOPE     H18R     HAL3     0.900000E-01   1.00800           0
     15851 MEMB     136      SOPE     H18S     HAL3     0.900000E-01   1.00800           0
     15852 MEMB     136      SOPE     H18T     HAL3     0.900000E-01   1.00800           0
     15853 MEMB     136      SOPE     C33      CTL2    -0.180000       12.0110           0
     15854 MEMB     136      SOPE     H3X      HAL2     0.900000E-01   1.00800           0
     15855 MEMB     136      SOPE     H3Y      HAL2     0.900000E-01   1.00800           0
     15856 MEMB     136      SOPE     C34      CTL2    -0.180000       12.0110           0
     15857 MEMB     136      SOPE     H4X      HAL2     0.900000E-01   1.00800           0
     15858 MEMB     136      SOPE     H4Y      HAL2     0.900000E-01   1.00800           0
     15859 MEMB     136      SOPE     C35      CTL2    -0.180000       12.0110           0
     15860 MEMB     136      SOPE     H5X      HAL2     0.900000E-01   1.00800           0
     15861 MEMB     136      SOPE     H5Y      HAL2     0.900000E-01   1.00800           0
     15862 MEMB     136      SOPE     C36      CTL2    -0.180000       12.0110           0
     15863 MEMB     136      SOPE     H6X      HAL2     0.900000E-01   1.00800           0
     15864 MEMB     136      SOPE     H6Y      HAL2     0.900000E-01   1.00800           0
     15865 MEMB     136      SOPE     C37      CTL2    -0.180000       12.0110           0
     15866 MEMB     136      SOPE     H7X      HAL2     0.900000E-01   1.00800           0
     15867 MEMB     136      SOPE     H7Y      HAL2     0.900000E-01   1.00800           0
     15868 MEMB     136      SOPE     C38      CTL2    -0.180000       12.0110           0
     15869 MEMB     136      SOPE     H8X      HAL2     0.900000E-01   1.00800           0
     15870 MEMB     136      SOPE     H8Y      HAL2     0.900000E-01   1.00800           0
     15871 MEMB     136      SOPE     C39      CTL2    -0.180000       12.0110           0
     15872 MEMB     136      SOPE     H9X      HAL2     0.900000E-01   1.00800           0
     15873 MEMB     136      SOPE     H9Y      HAL2     0.900000E-01   1.00800           0
     15874 MEMB     136      SOPE     C310     CTL2    -0.180000       12.0110           0
     15875 MEMB     136      SOPE     H10X     HAL2     0.900000E-01   1.00800           0
     15876 MEMB     136      SOPE     H10Y     HAL2     0.900000E-01   1.00800           0
     15877 MEMB     136      SOPE     C311     CTL2    -0.180000       12.0110           0
     15878 MEMB     136      SOPE     H11X     HAL2     0.900000E-01   1.00800           0
     15879 MEMB     136      SOPE     H11Y     HAL2     0.900000E-01   1.00800           0
     15880 MEMB     136      SOPE     C312     CTL2    -0.180000       12.0110           0
     15881 MEMB     136      SOPE     H12X     HAL2     0.900000E-01   1.00800           0
     15882 MEMB     136      SOPE     H12Y     HAL2     0.900000E-01   1.00800           0
     15883 MEMB     136      SOPE     C313     CTL2    -0.180000       12.0110           0
     15884 MEMB     136      SOPE     H13X     HAL2     0.900000E-01   1.00800           0
     15885 MEMB     136      SOPE     H13Y     HAL2     0.900000E-01   1.00800           0
     15886 MEMB     136      SOPE     C314     CTL2    -0.180000       12.0110           0
     15887 MEMB     136      SOPE     H14X     HAL2     0.900000E-01   1.00800           0
     15888 MEMB     136      SOPE     H14Y     HAL2     0.900000E-01   1.00800           0
     15889 MEMB     136      SOPE     C315     CTL2    -0.180000       12.0110           0
     15890 MEMB     136      SOPE     H15X     HAL2     0.900000E-01   1.00800           0
     15891 MEMB     136      SOPE     H15Y     HAL2     0.900000E-01   1.00800           0
     15892 MEMB     136      SOPE     C316     CTL2    -0.180000       12.0110           0
     15893 MEMB     136      SOPE     H16X     HAL2     0.900000E-01   1.00800           0
     15894 MEMB     136      SOPE     H16Y     HAL2     0.900000E-01   1.00800           0
     15895 MEMB     136      SOPE     C317     CTL2    -0.180000       12.0110           0
     15896 MEMB     136      SOPE     H17X     HAL2     0.900000E-01   1.00800           0
     15897 MEMB     136      SOPE     H17Y     HAL2     0.900000E-01   1.00800           0
     15898 MEMB     136      SOPE     C318     CTL3    -0.270000       12.0110           0
     15899 MEMB     136      SOPE     H18X     HAL3     0.900000E-01   1.00800           0
     15900 MEMB     136      SOPE     H18Y     HAL3     0.900000E-01   1.00800           0
     15901 MEMB     136      SOPE     H18Z     HAL3     0.900000E-01   1.00800           0
     15902 MEMB     137      OSM      N        NTL     -0.600000       14.0070           0
     15903 MEMB     137      OSM      C15      CTL5    -0.350000       12.0110           0
     15904 MEMB     137      OSM      H15A     HL       0.250000       1.00800           0
     15905 MEMB     137      OSM      H15B     HL       0.250000       1.00800           0
     15906 MEMB     137      OSM      H15C     HL       0.250000       1.00800           0
     15907 MEMB     137      OSM      C14      CTL5    -0.350000       12.0110           0
     15908 MEMB     137      OSM      H14A     HL       0.250000       1.00800           0
     15909 MEMB     137      OSM      H14B     HL       0.250000       1.00800           0
     15910 MEMB     137      OSM      H14C     HL       0.250000       1.00800           0
     15911 MEMB     137      OSM      C13      CTL5    -0.350000       12.0110           0
     15912 MEMB     137      OSM      H13A     HL       0.250000       1.00800           0
     15913 MEMB     137      OSM      H13B     HL       0.250000       1.00800           0
     15914 MEMB     137      OSM      H13C     HL       0.250000       1.00800           0
     15915 MEMB     137      OSM      C12      CTL2    -0.100000       12.0110           0
     15916 MEMB     137      OSM      H12A     HL       0.250000       1.00800           0
     15917 MEMB     137      OSM      H12B     HL       0.250000       1.00800           0
     15918 MEMB     137      OSM      C11      CTL2    -0.800000E-01   12.0110           0
     15919 MEMB     137      OSM      H11A     HAL2     0.900000E-01   1.00800           0
     15920 MEMB     137      OSM      H11B     HAL2     0.900000E-01   1.00800           0
     15921 MEMB     137      OSM      P        PL        1.50000       30.9740           0
     15922 MEMB     137      OSM      O13      O2L     -0.780000       15.9994           0
     15923 MEMB     137      OSM      O14      O2L     -0.780000       15.9994           0
     15924 MEMB     137      OSM      O11      OSLP    -0.570000       15.9994           0
     15925 MEMB     137      OSM      O12      OSLP    -0.570000       15.9994           0
     15926 MEMB     137      OSM      C1S      CTL2    -0.800000E-01   12.0110           0
     15927 MEMB     137      OSM      H1S      HAL2     0.900000E-01   1.00800           0
     15928 MEMB     137      OSM      H1T      HAL2     0.900000E-01   1.00800           0
     15929 MEMB     137      OSM      NF       NHL     -0.700000       14.0070           0
     15930 MEMB     137      OSM      HNF      H        0.350000       1.00800           0
     15931 MEMB     137      OSM      C2S      CTL1     0.300000       12.0110           0
     15932 MEMB     137      OSM      H2S      HAL1     0.500000E-01   1.00800           0
     15933 MEMB     137      OSM      C3S      CTO1     0.500000       12.0110           0
     15934 MEMB     137      OSM      H3S      HAL1    -0.110000       1.00800           0
     15935 MEMB     137      OSM      O3       OHL     -0.690000       15.9994           0
     15936 MEMB     137      OSM      HO3      HOL      0.300000       1.00800           0
     15937 MEMB     137      OSM      C4S      CEL3    -0.150000       12.0110           0
     15938 MEMB     137      OSM      H4S      HEL1     0.150000       1.00800           0
     15939 MEMB     137      OSM      C5S      CEL3    -0.150000       12.0110           0
     15940 MEMB     137      OSM      H5S      HEL1     0.150000       1.00800           0
     15941 MEMB     137      OSM      C6S      CTL2    -0.180000       12.0110           0
     15942 MEMB     137      OSM      H6S      HAL2     0.900000E-01   1.00800           0
     15943 MEMB     137      OSM      H6T      HAL2     0.900000E-01   1.00800           0
     15944 MEMB     137      OSM      C7S      CTL2    -0.180000       12.0110           0
     15945 MEMB     137      OSM      H7S      HAL2     0.900000E-01   1.00800           0
     15946 MEMB     137      OSM      H7T      HAL2     0.900000E-01   1.00800           0
     15947 MEMB     137      OSM      C8S      CTL2    -0.180000       12.0110           0
     15948 MEMB     137      OSM      H8S      HAL2     0.900000E-01   1.00800           0
     15949 MEMB     137      OSM      H8T      HAL2     0.900000E-01   1.00800           0
     15950 MEMB     137      OSM      C9S      CTL2    -0.180000       12.0110           0
     15951 MEMB     137      OSM      H9S      HAL2     0.900000E-01   1.00800           0
     15952 MEMB     137      OSM      H9T      HAL2     0.900000E-01   1.00800           0
     15953 MEMB     137      OSM      C10S     CTL2    -0.180000       12.0110           0
     15954 MEMB     137      OSM      H10S     HAL2     0.900000E-01   1.00800           0
     15955 MEMB     137      OSM      H10T     HAL2     0.900000E-01   1.00800           0
     15956 MEMB     137      OSM      C11S     CTL2    -0.180000       12.0110           0
     15957 MEMB     137      OSM      H11S     HAL2     0.900000E-01   1.00800           0
     15958 MEMB     137      OSM      H11T     HAL2     0.900000E-01   1.00800           0
     15959 MEMB     137      OSM      C12S     CTL2    -0.180000       12.0110           0
     15960 MEMB     137      OSM      H12S     HAL2     0.900000E-01   1.00800           0
     15961 MEMB     137      OSM      H12T     HAL2     0.900000E-01   1.00800           0
     15962 MEMB     137      OSM      C13S     CTL2    -0.180000       12.0110           0
     15963 MEMB     137      OSM      H13S     HAL2     0.900000E-01   1.00800           0
     15964 MEMB     137      OSM      H13T     HAL2     0.900000E-01   1.00800           0
     15965 MEMB     137      OSM      C14S     CTL2    -0.180000       12.0110           0
     15966 MEMB     137      OSM      H14S     HAL2     0.900000E-01   1.00800           0
     15967 MEMB     137      OSM      H14T     HAL2     0.900000E-01   1.00800           0
     15968 MEMB     137      OSM      C15S     CTL2    -0.180000       12.0110           0
     15969 MEMB     137      OSM      H15S     HAL2     0.900000E-01   1.00800           0
     15970 MEMB     137      OSM      H15T     HAL2     0.900000E-01   1.00800           0
     15971 MEMB     137      OSM      C16S     CTL2    -0.180000       12.0110           0
     15972 MEMB     137      OSM      H16S     HAL2     0.900000E-01   1.00800           0
     15973 MEMB     137      OSM      H16T     HAL2     0.900000E-01   1.00800           0
     15974 MEMB     137      OSM      C17S     CTL2    -0.180000       12.0110           0
     15975 MEMB     137      OSM      H17S     HAL2     0.900000E-01   1.00800           0
     15976 MEMB     137      OSM      H17T     HAL2     0.900000E-01   1.00800           0
     15977 MEMB     137      OSM      C18S     CTL3    -0.270000       12.0110           0
     15978 MEMB     137      OSM      H18S     HAL3     0.900000E-01   1.00800           0
     15979 MEMB     137      OSM      H18T     HAL3     0.900000E-01   1.00800           0
     15980 MEMB     137      OSM      H18U     HAL3     0.900000E-01   1.00800           0
     15981 MEMB     137      OSM      C1F      C        0.550000       12.0110           0
     15982 MEMB     137      OSM      OF       O       -0.600000       15.9994           0
     15983 MEMB     137      OSM      C2F      CTL2    -0.700000E-01   12.0110           0
     15984 MEMB     137      OSM      H2F      HAL2     0.600000E-01   1.00800           0
     15985 MEMB     137      OSM      H2G      HAL2     0.600000E-01   1.00800           0
     15986 MEMB     137      OSM      C3F      CTL2    -0.180000       12.0110           0
     15987 MEMB     137      OSM      H3F      HAL2     0.900000E-01   1.00800           0
     15988 MEMB     137      OSM      H3G      HAL2     0.900000E-01   1.00800           0
     15989 MEMB     137      OSM      C4F      CTL2    -0.180000       12.0110           0
     15990 MEMB     137      OSM      H4F      HAL2     0.900000E-01   1.00800           0
     15991 MEMB     137      OSM      H4G      HAL2     0.900000E-01   1.00800           0
     15992 MEMB     137      OSM      C5F      CTL2    -0.180000       12.0110           0
     15993 MEMB     137      OSM      H5F      HAL2     0.900000E-01   1.00800           0
     15994 MEMB     137      OSM      H5G      HAL2     0.900000E-01   1.00800           0
     15995 MEMB     137      OSM      C6F      CTL2    -0.180000       12.0110           0
     15996 MEMB     137      OSM      H6F      HAL2     0.900000E-01   1.00800           0
     15997 MEMB     137      OSM      H6G      HAL2     0.900000E-01   1.00800           0
     15998 MEMB     137      OSM      C7F      CTL2    -0.180000       12.0110           0
     15999 MEMB     137      OSM      H7F      HAL2     0.900000E-01   1.00800           0
     16000 MEMB     137      OSM      H7G      HAL2     0.900000E-01   1.00800           0
     16001 MEMB     137      OSM      C8F      CTL2    -0.180000       12.0110           0
     16002 MEMB     137      OSM      H8F      HAL2     0.900000E-01   1.00800           0
     16003 MEMB     137      OSM      H8G      HAL2     0.900000E-01   1.00800           0
     16004 MEMB     137      OSM      C9F      CEL1    -0.150000       12.0110           0
     16005 MEMB     137      OSM      H9F      HEL1     0.150000       1.00800           0
     16006 MEMB     137      OSM      C10F     CEL1    -0.150000       12.0110           0
     16007 MEMB     137      OSM      H10F     HEL1     0.150000       1.00800           0
     16008 MEMB     137      OSM      C11F     CTL2    -0.180000       12.0110           0
     16009 MEMB     137      OSM      H11F     HAL2     0.900000E-01   1.00800           0
     16010 MEMB     137      OSM      H11G     HAL2     0.900000E-01   1.00800           0
     16011 MEMB     137      OSM      C12F     CTL2    -0.180000       12.0110           0
     16012 MEMB     137      OSM      H12F     HAL2     0.900000E-01   1.00800           0
     16013 MEMB     137      OSM      H12G     HAL2     0.900000E-01   1.00800           0
     16014 MEMB     137      OSM      C13F     CTL2    -0.180000       12.0110           0
     16015 MEMB     137      OSM      H13F     HAL2     0.900000E-01   1.00800           0
     16016 MEMB     137      OSM      H13G     HAL2     0.900000E-01   1.00800           0
     16017 MEMB     137      OSM      C14F     CTL2    -0.180000       12.0110           0
     16018 MEMB     137      OSM      H14F     HAL2     0.900000E-01   1.00800           0
     16019 MEMB     137      OSM      H14G     HAL2     0.900000E-01   1.00800           0
     16020 MEMB     137      OSM      C15F     CTL2    -0.180000       12.0110           0
     16021 MEMB     137      OSM      H15F     HAL2     0.900000E-01   1.00800           0
     16022 MEMB     137      OSM      H15G     HAL2     0.900000E-01   1.00800           0
     16023 MEMB     137      OSM      C16F     CTL2    -0.180000       12.0110           0
     16024 MEMB     137      OSM      H16F     HAL2     0.900000E-01   1.00800           0
     16025 MEMB     137      OSM      H16G     HAL2     0.900000E-01   1.00800           0
     16026 MEMB     137      OSM      C17F     CTL2    -0.180000       12.0110           0
     16027 MEMB     137      OSM      H17F     HAL2     0.900000E-01   1.00800           0
     16028 MEMB     137      OSM      H17G     HAL2     0.900000E-01   1.00800           0
     16029 MEMB     137      OSM      C18F     CTL3    -0.270000       12.0110           0
     16030 MEMB     137      OSM      H18F     HAL3     0.900000E-01   1.00800           0
     16031 MEMB     137      OSM      H18G     HAL3     0.900000E-01   1.00800           0
     16032 MEMB     137      OSM      H18H     HAL3     0.900000E-01   1.00800           0
     16033 MEMB     138      CHL1     C3       CRL1     0.140000       12.0110           0
     16034 MEMB     138      CHL1     H3       HGA1     0.900000E-01   1.00800           0
     16035 MEMB     138      CHL1     O3       OHL     -0.660000       15.9994           0
     16036 MEMB     138      CHL1     H3'      HOL      0.430000       1.00800           0
     16037 MEMB     138      CHL1     C4       CRL2    -0.180000       12.0110           0
     16038 MEMB     138      CHL1     H4A      HGA2     0.900000E-01   1.00800           0
     16039 MEMB     138      CHL1     H4B      HGA2     0.900000E-01   1.00800           0
     16040 MEMB     138      CHL1     C5       CEL1      0.00000       12.0110           0
     16041 MEMB     138      CHL1     C6       CEL1    -0.150000       12.0110           0
     16042 MEMB     138      CHL1     H6       HEL1     0.150000       1.00800           0
     16043 MEMB     138      CHL1     C7       CRL2    -0.180000       12.0110           0
     16044 MEMB     138      CHL1     H7A      HGA2     0.900000E-01   1.00800           0
     16045 MEMB     138      CHL1     H7B      HGA2     0.900000E-01   1.00800           0
     16046 MEMB     138      CHL1     C8       CRL1    -0.900000E-01   12.0110           0
     16047 MEMB     138      CHL1     H8       HGA1     0.900000E-01   1.00800           0
     16048 MEMB     138      CHL1     C14      CRL1    -0.900000E-01   12.0110           0
     16049 MEMB     138      CHL1     H14      HGA1     0.900000E-01   1.00800           0
     16050 MEMB     138      CHL1     C15      CRL2    -0.180000       12.0110           0
     16051 MEMB     138      CHL1     H15A     HGA2     0.900000E-01   1.00800           0
     16052 MEMB     138      CHL1     H15B     HGA2     0.900000E-01   1.00800           0
     16053 MEMB     138      CHL1     C16      CRL2    -0.180000       12.0110           0
     16054 MEMB     138      CHL1     H16A     HGA2     0.900000E-01   1.00800           0
     16055 MEMB     138      CHL1     H16B     HGA2     0.900000E-01   1.00800           0
     16056 MEMB     138      CHL1     C17      CRL1    -0.900000E-01   12.0110           0
     16057 MEMB     138      CHL1     H17      HGA1     0.900000E-01   1.00800           0
     16058 MEMB     138      CHL1     C13      CRL1      0.00000       12.0110           0
     16059 MEMB     138      CHL1     C18      CTL3    -0.270000       12.0110           0
     16060 MEMB     138      CHL1     H18A     HAL3     0.900000E-01   1.00800           0
     16061 MEMB     138      CHL1     H18B     HAL3     0.900000E-01   1.00800           0
     16062 MEMB     138      CHL1     H18C     HAL3     0.900000E-01   1.00800           0
     16063 MEMB     138      CHL1     C12      CRL2    -0.180000       12.0110           0
     16064 MEMB     138      CHL1     H12A     HGA2     0.900000E-01   1.00800           0
     16065 MEMB     138      CHL1     H12B     HGA2     0.900000E-01   1.00800           0
     16066 MEMB     138      CHL1     C11      CRL2    -0.180000       12.0110           0
     16067 MEMB     138      CHL1     H11A     HGA2     0.900000E-01   1.00800           0
     16068 MEMB     138      CHL1     H11B     HGA2     0.900000E-01   1.00800           0
     16069 MEMB     138      CHL1     C9       CRL1    -0.900000E-01   12.0110           0
     16070 MEMB     138      CHL1     H9       HGA1     0.900000E-01   1.00800           0
     16071 MEMB     138      CHL1     C10      CRL1      0.00000       12.0110           0
     16072 MEMB     138      CHL1     C19      CTL3    -0.270000       12.0110           0
     16073 MEMB     138      CHL1     H19A     HAL3     0.900000E-01   1.00800           0
     16074 MEMB     138      CHL1     H19B     HAL3     0.900000E-01   1.00800           0
     16075 MEMB     138      CHL1     H19C     HAL3     0.900000E-01   1.00800           0
     16076 MEMB     138      CHL1     C1       CRL2    -0.180000       12.0110           0
     16077 MEMB     138      CHL1     H1A      HGA2     0.900000E-01   1.00800           0
     16078 MEMB     138      CHL1     H1B      HGA2     0.900000E-01   1.00800           0
     16079 MEMB     138      CHL1     C2       CRL2    -0.180000       12.0110           0
     16080 MEMB     138      CHL1     H2A      HGA2     0.900000E-01   1.00800           0
     16081 MEMB     138      CHL1     H2B      HGA2     0.900000E-01   1.00800           0
     16082 MEMB     138      CHL1     C20      CTL1    -0.900000E-01   12.0110           0
     16083 MEMB     138      CHL1     H20      HAL1     0.900000E-01   1.00800           0
     16084 MEMB     138      CHL1     C21      CTL3    -0.270000       12.0110           0
     16085 MEMB     138      CHL1     H21A     HAL3     0.900000E-01   1.00800           0
     16086 MEMB     138      CHL1     H21B     HAL3     0.900000E-01   1.00800           0
     16087 MEMB     138      CHL1     H21C     HAL3     0.900000E-01   1.00800           0
     16088 MEMB     138      CHL1     C22      CTL2    -0.180000       12.0110           0
     16089 MEMB     138      CHL1     H22A     HAL2     0.900000E-01   1.00800           0
     16090 MEMB     138      CHL1     H22B     HAL2     0.900000E-01   1.00800           0
     16091 MEMB     138      CHL1     C23      CTL2    -0.180000       12.0110           0
     16092 MEMB     138      CHL1     H23A     HAL2     0.900000E-01   1.00800           0
     16093 MEMB     138      CHL1     H23B     HAL2     0.900000E-01   1.00800           0
     16094 MEMB     138      CHL1     C24      CTL2    -0.180000       12.0110           0
     16095 MEMB     138      CHL1     H24A     HAL2     0.900000E-01   1.00800           0
     16096 MEMB     138      CHL1     H24B     HAL2     0.900000E-01   1.00800           0
     16097 MEMB     138      CHL1     C25      CTL1    -0.900000E-01   12.0110           0
     16098 MEMB     138      CHL1     H25      HAL1     0.900000E-01   1.00800           0
     16099 MEMB     138      CHL1     C26      CTL3    -0.270000       12.0110           0
     16100 MEMB     138      CHL1     H26A     HAL3     0.900000E-01   1.00800           0
     16101 MEMB     138      CHL1     H26B     HAL3     0.900000E-01   1.00800           0
     16102 MEMB     138      CHL1     H26C     HAL3     0.900000E-01   1.00800           0
     16103 MEMB     138      CHL1     C27      CTL3    -0.270000       12.0110           0
     16104 MEMB     138      CHL1     H27A     HAL3     0.900000E-01   1.00800           0
     16105 MEMB     138      CHL1     H27B     HAL3     0.900000E-01   1.00800           0
     16106 MEMB     138      CHL1     H27C     HAL3     0.900000E-01   1.00800           0
     16107 MEMB     139      CHL1     C3       CRL1     0.140000       12.0110           0
     16108 MEMB     139      CHL1     H3       HGA1     0.900000E-01   1.00800           0
     16109 MEMB     139      CHL1     O3       OHL     -0.660000       15.9994           0
     16110 MEMB     139      CHL1     H3'      HOL      0.430000       1.00800           0
     16111 MEMB     139      CHL1     C4       CRL2    -0.180000       12.0110           0
     16112 MEMB     139      CHL1     H4A      HGA2     0.900000E-01   1.00800           0
     16113 MEMB     139      CHL1     H4B      HGA2     0.900000E-01   1.00800           0
     16114 MEMB     139      CHL1     C5       CEL1      0.00000       12.0110           0
     16115 MEMB     139      CHL1     C6       CEL1    -0.150000       12.0110           0
     16116 MEMB     139      CHL1     H6       HEL1     0.150000       1.00800           0
     16117 MEMB     139      CHL1     C7       CRL2    -0.180000       12.0110           0
     16118 MEMB     139      CHL1     H7A      HGA2     0.900000E-01   1.00800           0
     16119 MEMB     139      CHL1     H7B      HGA2     0.900000E-01   1.00800           0
     16120 MEMB     139      CHL1     C8       CRL1    -0.900000E-01   12.0110           0
     16121 MEMB     139      CHL1     H8       HGA1     0.900000E-01   1.00800           0
     16122 MEMB     139      CHL1     C14      CRL1    -0.900000E-01   12.0110           0
     16123 MEMB     139      CHL1     H14      HGA1     0.900000E-01   1.00800           0
     16124 MEMB     139      CHL1     C15      CRL2    -0.180000       12.0110           0
     16125 MEMB     139      CHL1     H15A     HGA2     0.900000E-01   1.00800           0
     16126 MEMB     139      CHL1     H15B     HGA2     0.900000E-01   1.00800           0
     16127 MEMB     139      CHL1     C16      CRL2    -0.180000       12.0110           0
     16128 MEMB     139      CHL1     H16A     HGA2     0.900000E-01   1.00800           0
     16129 MEMB     139      CHL1     H16B     HGA2     0.900000E-01   1.00800           0
     16130 MEMB     139      CHL1     C17      CRL1    -0.900000E-01   12.0110           0
     16131 MEMB     139      CHL1     H17      HGA1     0.900000E-01   1.00800           0
     16132 MEMB     139      CHL1     C13      CRL1      0.00000       12.0110           0
     16133 MEMB     139      CHL1     C18      CTL3    -0.270000       12.0110           0
     16134 MEMB     139      CHL1     H18A     HAL3     0.900000E-01   1.00800           0
     16135 MEMB     139      CHL1     H18B     HAL3     0.900000E-01   1.00800           0
     16136 MEMB     139      CHL1     H18C     HAL3     0.900000E-01   1.00800           0
     16137 MEMB     139      CHL1     C12      CRL2    -0.180000       12.0110           0
     16138 MEMB     139      CHL1     H12A     HGA2     0.900000E-01   1.00800           0
     16139 MEMB     139      CHL1     H12B     HGA2     0.900000E-01   1.00800           0
     16140 MEMB     139      CHL1     C11      CRL2    -0.180000       12.0110           0
     16141 MEMB     139      CHL1     H11A     HGA2     0.900000E-01   1.00800           0
     16142 MEMB     139      CHL1     H11B     HGA2     0.900000E-01   1.00800           0
     16143 MEMB     139      CHL1     C9       CRL1    -0.900000E-01   12.0110           0
     16144 MEMB     139      CHL1     H9       HGA1     0.900000E-01   1.00800           0
     16145 MEMB     139      CHL1     C10      CRL1      0.00000       12.0110           0
     16146 MEMB     139      CHL1     C19      CTL3    -0.270000       12.0110           0
     16147 MEMB     139      CHL1     H19A     HAL3     0.900000E-01   1.00800           0
     16148 MEMB     139      CHL1     H19B     HAL3     0.900000E-01   1.00800           0
     16149 MEMB     139      CHL1     H19C     HAL3     0.900000E-01   1.00800           0
     16150 MEMB     139      CHL1     C1       CRL2    -0.180000       12.0110           0
     16151 MEMB     139      CHL1     H1A      HGA2     0.900000E-01   1.00800           0
     16152 MEMB     139      CHL1     H1B      HGA2     0.900000E-01   1.00800           0
     16153 MEMB     139      CHL1     C2       CRL2    -0.180000       12.0110           0
     16154 MEMB     139      CHL1     H2A      HGA2     0.900000E-01   1.00800           0
     16155 MEMB     139      CHL1     H2B      HGA2     0.900000E-01   1.00800           0
     16156 MEMB     139      CHL1     C20      CTL1    -0.900000E-01   12.0110           0
     16157 MEMB     139      CHL1     H20      HAL1     0.900000E-01   1.00800           0
     16158 MEMB     139      CHL1     C21      CTL3    -0.270000       12.0110           0
     16159 MEMB     139      CHL1     H21A     HAL3     0.900000E-01   1.00800           0
     16160 MEMB     139      CHL1     H21B     HAL3     0.900000E-01   1.00800           0
     16161 MEMB     139      CHL1     H21C     HAL3     0.900000E-01   1.00800           0
     16162 MEMB     139      CHL1     C22      CTL2    -0.180000       12.0110           0
     16163 MEMB     139      CHL1     H22A     HAL2     0.900000E-01   1.00800           0
     16164 MEMB     139      CHL1     H22B     HAL2     0.900000E-01   1.00800           0
     16165 MEMB     139      CHL1     C23      CTL2    -0.180000       12.0110           0
     16166 MEMB     139      CHL1     H23A     HAL2     0.900000E-01   1.00800           0
     16167 MEMB     139      CHL1     H23B     HAL2     0.900000E-01   1.00800           0
     16168 MEMB     139      CHL1     C24      CTL2    -0.180000       12.0110           0
     16169 MEMB     139      CHL1     H24A     HAL2     0.900000E-01   1.00800           0
     16170 MEMB     139      CHL1     H24B     HAL2     0.900000E-01   1.00800           0
     16171 MEMB     139      CHL1     C25      CTL1    -0.900000E-01   12.0110           0
     16172 MEMB     139      CHL1     H25      HAL1     0.900000E-01   1.00800           0
     16173 MEMB     139      CHL1     C26      CTL3    -0.270000       12.0110           0
     16174 MEMB     139      CHL1     H26A     HAL3     0.900000E-01   1.00800           0
     16175 MEMB     139      CHL1     H26B     HAL3     0.900000E-01   1.00800           0
     16176 MEMB     139      CHL1     H26C     HAL3     0.900000E-01   1.00800           0
     16177 MEMB     139      CHL1     C27      CTL3    -0.270000       12.0110           0
     16178 MEMB     139      CHL1     H27A     HAL3     0.900000E-01   1.00800           0
     16179 MEMB     139      CHL1     H27B     HAL3     0.900000E-01   1.00800           0
     16180 MEMB     139      CHL1     H27C     HAL3     0.900000E-01   1.00800           0
     16181 MEMB     140      SAPS     N        NH3L    -0.300000       14.0070           0
     16182 MEMB     140      SAPS     HN1      HCL      0.330000       1.00800           0
     16183 MEMB     140      SAPS     HN2      HCL      0.330000       1.00800           0
     16184 MEMB     140      SAPS     HN3      HCL      0.330000       1.00800           0
     16185 MEMB     140      SAPS     C12      CTL1     0.210000       12.0110           0
     16186 MEMB     140      SAPS     H12A     HBL      0.100000       1.00800           0
     16187 MEMB     140      SAPS     C13      CCL      0.340000       12.0110           0
     16188 MEMB     140      SAPS     O13A     OCL     -0.670000       15.9994           0
     16189 MEMB     140      SAPS     O13B     OCL     -0.670000       15.9994           0
     16190 MEMB     140      SAPS     C11      CTL2    -0.800000E-01   12.0110           0
     16191 MEMB     140      SAPS     H11A     HAL2     0.900000E-01   1.00800           0
     16192 MEMB     140      SAPS     H11B     HAL2     0.900000E-01   1.00800           0
     16193 MEMB     140      SAPS     P        PL        1.50000       30.9740           0
     16194 MEMB     140      SAPS     O13      O2L     -0.780000       15.9994           0
     16195 MEMB     140      SAPS     O14      O2L     -0.780000       15.9994           0
     16196 MEMB     140      SAPS     O12      OSLP    -0.570000       15.9994           0
     16197 MEMB     140      SAPS     O11      OSLP    -0.570000       15.9994           0
     16198 MEMB     140      SAPS     C1       CTL2    -0.800000E-01   12.0110           0
     16199 MEMB     140      SAPS     HA       HAL2     0.900000E-01   1.00800           0
     16200 MEMB     140      SAPS     HB       HAL2     0.900000E-01   1.00800           0
     16201 MEMB     140      SAPS     C2       CTL1     0.170000       12.0110           0
     16202 MEMB     140      SAPS     HS       HAL1     0.900000E-01   1.00800           0
     16203 MEMB     140      SAPS     O21      OSL     -0.490000       15.9994           0
     16204 MEMB     140      SAPS     C21      CL       0.900000       12.0110           0
     16205 MEMB     140      SAPS     O22      OBL     -0.630000       15.9994           0
     16206 MEMB     140      SAPS     C22      CTL2    -0.220000       12.0110           0
     16207 MEMB     140      SAPS     H2R      HAL2     0.900000E-01   1.00800           0
     16208 MEMB     140      SAPS     H2S      HAL2     0.900000E-01   1.00800           0
     16209 MEMB     140      SAPS     C3       CTL2     0.800000E-01   12.0110           0
     16210 MEMB     140      SAPS     HX       HAL2     0.900000E-01   1.00800           0
     16211 MEMB     140      SAPS     HY       HAL2     0.900000E-01   1.00800           0
     16212 MEMB     140      SAPS     O31      OSL     -0.490000       15.9994           0
     16213 MEMB     140      SAPS     C31      CL       0.900000       12.0110           0
     16214 MEMB     140      SAPS     O32      OBL     -0.630000       15.9994           0
     16215 MEMB     140      SAPS     C32      CTL2    -0.220000       12.0110           0
     16216 MEMB     140      SAPS     H2X      HAL2     0.900000E-01   1.00800           0
     16217 MEMB     140      SAPS     H2Y      HAL2     0.900000E-01   1.00800           0
     16218 MEMB     140      SAPS     C23      CTL2    -0.180000       12.0110           0
     16219 MEMB     140      SAPS     H3R      HAL2     0.900000E-01   1.00800           0
     16220 MEMB     140      SAPS     H3S      HAL2     0.900000E-01   1.00800           0
     16221 MEMB     140      SAPS     C24      CTL2    -0.180000       12.0110           0
     16222 MEMB     140      SAPS     H4R      HAL2     0.900000E-01   1.00800           0
     16223 MEMB     140      SAPS     H4S      HAL2     0.900000E-01   1.00800           0
     16224 MEMB     140      SAPS     C25      CEL1    -0.150000       12.0110           0
     16225 MEMB     140      SAPS     H5R      HEL1     0.150000       1.00800           0
     16226 MEMB     140      SAPS     C26      CEL1    -0.150000       12.0110           0
     16227 MEMB     140      SAPS     H6R      HEL1     0.150000       1.00800           0
     16228 MEMB     140      SAPS     C27      CTL2    -0.180000       12.0110           0
     16229 MEMB     140      SAPS     H7R      HAL2     0.900000E-01   1.00800           0
     16230 MEMB     140      SAPS     H7S      HAL2     0.900000E-01   1.00800           0
     16231 MEMB     140      SAPS     C28      CEL1    -0.150000       12.0110           0
     16232 MEMB     140      SAPS     H8R      HEL1     0.150000       1.00800           0
     16233 MEMB     140      SAPS     C29      CEL1    -0.150000       12.0110           0
     16234 MEMB     140      SAPS     H9R      HEL1     0.150000       1.00800           0
     16235 MEMB     140      SAPS     C210     CTL2    -0.180000       12.0110           0
     16236 MEMB     140      SAPS     H10R     HAL2     0.900000E-01   1.00800           0
     16237 MEMB     140      SAPS     H10S     HAL2     0.900000E-01   1.00800           0
     16238 MEMB     140      SAPS     C211     CEL1    -0.150000       12.0110           0
     16239 MEMB     140      SAPS     H11R     HEL1     0.150000       1.00800           0
     16240 MEMB     140      SAPS     C212     CEL1    -0.150000       12.0110           0
     16241 MEMB     140      SAPS     H12R     HEL1     0.150000       1.00800           0
     16242 MEMB     140      SAPS     C213     CTL2    -0.180000       12.0110           0
     16243 MEMB     140      SAPS     H13R     HAL2     0.900000E-01   1.00800           0
     16244 MEMB     140      SAPS     H13S     HAL2     0.900000E-01   1.00800           0
     16245 MEMB     140      SAPS     C214     CEL1    -0.150000       12.0110           0
     16246 MEMB     140      SAPS     H14R     HEL1     0.150000       1.00800           0
     16247 MEMB     140      SAPS     C215     CEL1    -0.150000       12.0110           0
     16248 MEMB     140      SAPS     H15R     HEL1     0.150000       1.00800           0
     16249 MEMB     140      SAPS     C216     CTL2    -0.180000       12.0110           0
     16250 MEMB     140      SAPS     H16R     HAL2     0.900000E-01   1.00800           0
     16251 MEMB     140      SAPS     H16S     HAL2     0.900000E-01   1.00800           0
     16252 MEMB     140      SAPS     C217     CTL2    -0.180000       12.0110           0
     16253 MEMB     140      SAPS     H17R     HAL2     0.900000E-01   1.00800           0
     16254 MEMB     140      SAPS     H17S     HAL2     0.900000E-01   1.00800           0
     16255 MEMB     140      SAPS     C218     CTL2    -0.180000       12.0110           0
     16256 MEMB     140      SAPS     H18R     HAL2     0.900000E-01   1.00800           0
     16257 MEMB     140      SAPS     H18S     HAL2     0.900000E-01   1.00800           0
     16258 MEMB     140      SAPS     C219     CTL2    -0.180000       12.0110           0
     16259 MEMB     140      SAPS     H19R     HAL2     0.900000E-01   1.00800           0
     16260 MEMB     140      SAPS     H19S     HAL2     0.900000E-01   1.00800           0
     16261 MEMB     140      SAPS     C220     CTL3    -0.270000       12.0110           0
     16262 MEMB     140      SAPS     H20R     HAL3     0.900000E-01   1.00800           0
     16263 MEMB     140      SAPS     H20S     HAL3     0.900000E-01   1.00800           0
     16264 MEMB     140      SAPS     H20T     HAL3     0.900000E-01   1.00800           0
     16265 MEMB     140      SAPS     C33      CTL2    -0.180000       12.0110           0
     16266 MEMB     140      SAPS     H3X      HAL2     0.900000E-01   1.00800           0
     16267 MEMB     140      SAPS     H3Y      HAL2     0.900000E-01   1.00800           0
     16268 MEMB     140      SAPS     C34      CTL2    -0.180000       12.0110           0
     16269 MEMB     140      SAPS     H4X      HAL2     0.900000E-01   1.00800           0
     16270 MEMB     140      SAPS     H4Y      HAL2     0.900000E-01   1.00800           0
     16271 MEMB     140      SAPS     C35      CTL2    -0.180000       12.0110           0
     16272 MEMB     140      SAPS     H5X      HAL2     0.900000E-01   1.00800           0
     16273 MEMB     140      SAPS     H5Y      HAL2     0.900000E-01   1.00800           0
     16274 MEMB     140      SAPS     C36      CTL2    -0.180000       12.0110           0
     16275 MEMB     140      SAPS     H6X      HAL2     0.900000E-01   1.00800           0
     16276 MEMB     140      SAPS     H6Y      HAL2     0.900000E-01   1.00800           0
     16277 MEMB     140      SAPS     C37      CTL2    -0.180000       12.0110           0
     16278 MEMB     140      SAPS     H7X      HAL2     0.900000E-01   1.00800           0
     16279 MEMB     140      SAPS     H7Y      HAL2     0.900000E-01   1.00800           0
     16280 MEMB     140      SAPS     C38      CTL2    -0.180000       12.0110           0
     16281 MEMB     140      SAPS     H8X      HAL2     0.900000E-01   1.00800           0
     16282 MEMB     140      SAPS     H8Y      HAL2     0.900000E-01   1.00800           0
     16283 MEMB     140      SAPS     C39      CTL2    -0.180000       12.0110           0
     16284 MEMB     140      SAPS     H9X      HAL2     0.900000E-01   1.00800           0
     16285 MEMB     140      SAPS     H9Y      HAL2     0.900000E-01   1.00800           0
     16286 MEMB     140      SAPS     C310     CTL2    -0.180000       12.0110           0
     16287 MEMB     140      SAPS     H10X     HAL2     0.900000E-01   1.00800           0
     16288 MEMB     140      SAPS     H10Y     HAL2     0.900000E-01   1.00800           0
     16289 MEMB     140      SAPS     C311     CTL2    -0.180000       12.0110           0
     16290 MEMB     140      SAPS     H11X     HAL2     0.900000E-01   1.00800           0
     16291 MEMB     140      SAPS     H11Y     HAL2     0.900000E-01   1.00800           0
     16292 MEMB     140      SAPS     C312     CTL2    -0.180000       12.0110           0
     16293 MEMB     140      SAPS     H12X     HAL2     0.900000E-01   1.00800           0
     16294 MEMB     140      SAPS     H12Y     HAL2     0.900000E-01   1.00800           0
     16295 MEMB     140      SAPS     C313     CTL2    -0.180000       12.0110           0
     16296 MEMB     140      SAPS     H13X     HAL2     0.900000E-01   1.00800           0
     16297 MEMB     140      SAPS     H13Y     HAL2     0.900000E-01   1.00800           0
     16298 MEMB     140      SAPS     C314     CTL2    -0.180000       12.0110           0
     16299 MEMB     140      SAPS     H14X     HAL2     0.900000E-01   1.00800           0
     16300 MEMB     140      SAPS     H14Y     HAL2     0.900000E-01   1.00800           0
     16301 MEMB     140      SAPS     C315     CTL2    -0.180000       12.0110           0
     16302 MEMB     140      SAPS     H15X     HAL2     0.900000E-01   1.00800           0
     16303 MEMB     140      SAPS     H15Y     HAL2     0.900000E-01   1.00800           0
     16304 MEMB     140      SAPS     C316     CTL2    -0.180000       12.0110           0
     16305 MEMB     140      SAPS     H16X     HAL2     0.900000E-01   1.00800           0
     16306 MEMB     140      SAPS     H16Y     HAL2     0.900000E-01   1.00800           0
     16307 MEMB     140      SAPS     C317     CTL2    -0.180000       12.0110           0
     16308 MEMB     140      SAPS     H17X     HAL2     0.900000E-01   1.00800           0
     16309 MEMB     140      SAPS     H17Y     HAL2     0.900000E-01   1.00800           0
     16310 MEMB     140      SAPS     C318     CTL3    -0.270000       12.0110           0
     16311 MEMB     140      SAPS     H18X     HAL3     0.900000E-01   1.00800           0
     16312 MEMB     140      SAPS     H18Y     HAL3     0.900000E-01   1.00800           0
     16313 MEMB     140      SAPS     H18Z     HAL3     0.900000E-01   1.00800           0
     16314 MEMB     141      OSM      N        NTL     -0.600000       14.0070           0
     16315 MEMB     141      OSM      C15      CTL5    -0.350000       12.0110           0
     16316 MEMB     141      OSM      H15A     HL       0.250000       1.00800           0
     16317 MEMB     141      OSM      H15B     HL       0.250000       1.00800           0
     16318 MEMB     141      OSM      H15C     HL       0.250000       1.00800           0
     16319 MEMB     141      OSM      C14      CTL5    -0.350000       12.0110           0
     16320 MEMB     141      OSM      H14A     HL       0.250000       1.00800           0
     16321 MEMB     141      OSM      H14B     HL       0.250000       1.00800           0
     16322 MEMB     141      OSM      H14C     HL       0.250000       1.00800           0
     16323 MEMB     141      OSM      C13      CTL5    -0.350000       12.0110           0
     16324 MEMB     141      OSM      H13A     HL       0.250000       1.00800           0
     16325 MEMB     141      OSM      H13B     HL       0.250000       1.00800           0
     16326 MEMB     141      OSM      H13C     HL       0.250000       1.00800           0
     16327 MEMB     141      OSM      C12      CTL2    -0.100000       12.0110           0
     16328 MEMB     141      OSM      H12A     HL       0.250000       1.00800           0
     16329 MEMB     141      OSM      H12B     HL       0.250000       1.00800           0
     16330 MEMB     141      OSM      C11      CTL2    -0.800000E-01   12.0110           0
     16331 MEMB     141      OSM      H11A     HAL2     0.900000E-01   1.00800           0
     16332 MEMB     141      OSM      H11B     HAL2     0.900000E-01   1.00800           0
     16333 MEMB     141      OSM      P        PL        1.50000       30.9740           0
     16334 MEMB     141      OSM      O13      O2L     -0.780000       15.9994           0
     16335 MEMB     141      OSM      O14      O2L     -0.780000       15.9994           0
     16336 MEMB     141      OSM      O11      OSLP    -0.570000       15.9994           0
     16337 MEMB     141      OSM      O12      OSLP    -0.570000       15.9994           0
     16338 MEMB     141      OSM      C1S      CTL2    -0.800000E-01   12.0110           0
     16339 MEMB     141      OSM      H1S      HAL2     0.900000E-01   1.00800           0
     16340 MEMB     141      OSM      H1T      HAL2     0.900000E-01   1.00800           0
     16341 MEMB     141      OSM      NF       NHL     -0.700000       14.0070           0
     16342 MEMB     141      OSM      HNF      H        0.350000       1.00800           0
     16343 MEMB     141      OSM      C2S      CTL1     0.300000       12.0110           0
     16344 MEMB     141      OSM      H2S      HAL1     0.500000E-01   1.00800           0
     16345 MEMB     141      OSM      C3S      CTO1     0.500000       12.0110           0
     16346 MEMB     141      OSM      H3S      HAL1    -0.110000       1.00800           0
     16347 MEMB     141      OSM      O3       OHL     -0.690000       15.9994           0
     16348 MEMB     141      OSM      HO3      HOL      0.300000       1.00800           0
     16349 MEMB     141      OSM      C4S      CEL3    -0.150000       12.0110           0
     16350 MEMB     141      OSM      H4S      HEL1     0.150000       1.00800           0
     16351 MEMB     141      OSM      C5S      CEL3    -0.150000       12.0110           0
     16352 MEMB     141      OSM      H5S      HEL1     0.150000       1.00800           0
     16353 MEMB     141      OSM      C6S      CTL2    -0.180000       12.0110           0
     16354 MEMB     141      OSM      H6S      HAL2     0.900000E-01   1.00800           0
     16355 MEMB     141      OSM      H6T      HAL2     0.900000E-01   1.00800           0
     16356 MEMB     141      OSM      C7S      CTL2    -0.180000       12.0110           0
     16357 MEMB     141      OSM      H7S      HAL2     0.900000E-01   1.00800           0
     16358 MEMB     141      OSM      H7T      HAL2     0.900000E-01   1.00800           0
     16359 MEMB     141      OSM      C8S      CTL2    -0.180000       12.0110           0
     16360 MEMB     141      OSM      H8S      HAL2     0.900000E-01   1.00800           0
     16361 MEMB     141      OSM      H8T      HAL2     0.900000E-01   1.00800           0
     16362 MEMB     141      OSM      C9S      CTL2    -0.180000       12.0110           0
     16363 MEMB     141      OSM      H9S      HAL2     0.900000E-01   1.00800           0
     16364 MEMB     141      OSM      H9T      HAL2     0.900000E-01   1.00800           0
     16365 MEMB     141      OSM      C10S     CTL2    -0.180000       12.0110           0
     16366 MEMB     141      OSM      H10S     HAL2     0.900000E-01   1.00800           0
     16367 MEMB     141      OSM      H10T     HAL2     0.900000E-01   1.00800           0
     16368 MEMB     141      OSM      C11S     CTL2    -0.180000       12.0110           0
     16369 MEMB     141      OSM      H11S     HAL2     0.900000E-01   1.00800           0
     16370 MEMB     141      OSM      H11T     HAL2     0.900000E-01   1.00800           0
     16371 MEMB     141      OSM      C12S     CTL2    -0.180000       12.0110           0
     16372 MEMB     141      OSM      H12S     HAL2     0.900000E-01   1.00800           0
     16373 MEMB     141      OSM      H12T     HAL2     0.900000E-01   1.00800           0
     16374 MEMB     141      OSM      C13S     CTL2    -0.180000       12.0110           0
     16375 MEMB     141      OSM      H13S     HAL2     0.900000E-01   1.00800           0
     16376 MEMB     141      OSM      H13T     HAL2     0.900000E-01   1.00800           0
     16377 MEMB     141      OSM      C14S     CTL2    -0.180000       12.0110           0
     16378 MEMB     141      OSM      H14S     HAL2     0.900000E-01   1.00800           0
     16379 MEMB     141      OSM      H14T     HAL2     0.900000E-01   1.00800           0
     16380 MEMB     141      OSM      C15S     CTL2    -0.180000       12.0110           0
     16381 MEMB     141      OSM      H15S     HAL2     0.900000E-01   1.00800           0
     16382 MEMB     141      OSM      H15T     HAL2     0.900000E-01   1.00800           0
     16383 MEMB     141      OSM      C16S     CTL2    -0.180000       12.0110           0
     16384 MEMB     141      OSM      H16S     HAL2     0.900000E-01   1.00800           0
     16385 MEMB     141      OSM      H16T     HAL2     0.900000E-01   1.00800           0
     16386 MEMB     141      OSM      C17S     CTL2    -0.180000       12.0110           0
     16387 MEMB     141      OSM      H17S     HAL2     0.900000E-01   1.00800           0
     16388 MEMB     141      OSM      H17T     HAL2     0.900000E-01   1.00800           0
     16389 MEMB     141      OSM      C18S     CTL3    -0.270000       12.0110           0
     16390 MEMB     141      OSM      H18S     HAL3     0.900000E-01   1.00800           0
     16391 MEMB     141      OSM      H18T     HAL3     0.900000E-01   1.00800           0
     16392 MEMB     141      OSM      H18U     HAL3     0.900000E-01   1.00800           0
     16393 MEMB     141      OSM      C1F      C        0.550000       12.0110           0
     16394 MEMB     141      OSM      OF       O       -0.600000       15.9994           0
     16395 MEMB     141      OSM      C2F      CTL2    -0.700000E-01   12.0110           0
     16396 MEMB     141      OSM      H2F      HAL2     0.600000E-01   1.00800           0
     16397 MEMB     141      OSM      H2G      HAL2     0.600000E-01   1.00800           0
     16398 MEMB     141      OSM      C3F      CTL2    -0.180000       12.0110           0
     16399 MEMB     141      OSM      H3F      HAL2     0.900000E-01   1.00800           0
     16400 MEMB     141      OSM      H3G      HAL2     0.900000E-01   1.00800           0
     16401 MEMB     141      OSM      C4F      CTL2    -0.180000       12.0110           0
     16402 MEMB     141      OSM      H4F      HAL2     0.900000E-01   1.00800           0
     16403 MEMB     141      OSM      H4G      HAL2     0.900000E-01   1.00800           0
     16404 MEMB     141      OSM      C5F      CTL2    -0.180000       12.0110           0
     16405 MEMB     141      OSM      H5F      HAL2     0.900000E-01   1.00800           0
     16406 MEMB     141      OSM      H5G      HAL2     0.900000E-01   1.00800           0
     16407 MEMB     141      OSM      C6F      CTL2    -0.180000       12.0110           0
     16408 MEMB     141      OSM      H6F      HAL2     0.900000E-01   1.00800           0
     16409 MEMB     141      OSM      H6G      HAL2     0.900000E-01   1.00800           0
     16410 MEMB     141      OSM      C7F      CTL2    -0.180000       12.0110           0
     16411 MEMB     141      OSM      H7F      HAL2     0.900000E-01   1.00800           0
     16412 MEMB     141      OSM      H7G      HAL2     0.900000E-01   1.00800           0
     16413 MEMB     141      OSM      C8F      CTL2    -0.180000       12.0110           0
     16414 MEMB     141      OSM      H8F      HAL2     0.900000E-01   1.00800           0
     16415 MEMB     141      OSM      H8G      HAL2     0.900000E-01   1.00800           0
     16416 MEMB     141      OSM      C9F      CEL1    -0.150000       12.0110           0
     16417 MEMB     141      OSM      H9F      HEL1     0.150000       1.00800           0
     16418 MEMB     141      OSM      C10F     CEL1    -0.150000       12.0110           0
     16419 MEMB     141      OSM      H10F     HEL1     0.150000       1.00800           0
     16420 MEMB     141      OSM      C11F     CTL2    -0.180000       12.0110           0
     16421 MEMB     141      OSM      H11F     HAL2     0.900000E-01   1.00800           0
     16422 MEMB     141      OSM      H11G     HAL2     0.900000E-01   1.00800           0
     16423 MEMB     141      OSM      C12F     CTL2    -0.180000       12.0110           0
     16424 MEMB     141      OSM      H12F     HAL2     0.900000E-01   1.00800           0
     16425 MEMB     141      OSM      H12G     HAL2     0.900000E-01   1.00800           0
     16426 MEMB     141      OSM      C13F     CTL2    -0.180000       12.0110           0
     16427 MEMB     141      OSM      H13F     HAL2     0.900000E-01   1.00800           0
     16428 MEMB     141      OSM      H13G     HAL2     0.900000E-01   1.00800           0
     16429 MEMB     141      OSM      C14F     CTL2    -0.180000       12.0110           0
     16430 MEMB     141      OSM      H14F     HAL2     0.900000E-01   1.00800           0
     16431 MEMB     141      OSM      H14G     HAL2     0.900000E-01   1.00800           0
     16432 MEMB     141      OSM      C15F     CTL2    -0.180000       12.0110           0
     16433 MEMB     141      OSM      H15F     HAL2     0.900000E-01   1.00800           0
     16434 MEMB     141      OSM      H15G     HAL2     0.900000E-01   1.00800           0
     16435 MEMB     141      OSM      C16F     CTL2    -0.180000       12.0110           0
     16436 MEMB     141      OSM      H16F     HAL2     0.900000E-01   1.00800           0
     16437 MEMB     141      OSM      H16G     HAL2     0.900000E-01   1.00800           0
     16438 MEMB     141      OSM      C17F     CTL2    -0.180000       12.0110           0
     16439 MEMB     141      OSM      H17F     HAL2     0.900000E-01   1.00800           0
     16440 MEMB     141      OSM      H17G     HAL2     0.900000E-01   1.00800           0
     16441 MEMB     141      OSM      C18F     CTL3    -0.270000       12.0110           0
     16442 MEMB     141      OSM      H18F     HAL3     0.900000E-01   1.00800           0
     16443 MEMB     141      OSM      H18G     HAL3     0.900000E-01   1.00800           0
     16444 MEMB     141      OSM      H18H     HAL3     0.900000E-01   1.00800           0
     16445 MEMB     142      SLPC     N        NTL     -0.600000       14.0070           0
     16446 MEMB     142      SLPC     C13      CTL5    -0.350000       12.0110           0
     16447 MEMB     142      SLPC     H13A     HL       0.250000       1.00800           0
     16448 MEMB     142      SLPC     H13B     HL       0.250000       1.00800           0
     16449 MEMB     142      SLPC     H13C     HL       0.250000       1.00800           0
     16450 MEMB     142      SLPC     C14      CTL5    -0.350000       12.0110           0
     16451 MEMB     142      SLPC     H14A     HL       0.250000       1.00800           0
     16452 MEMB     142      SLPC     H14B     HL       0.250000       1.00800           0
     16453 MEMB     142      SLPC     H14C     HL       0.250000       1.00800           0
     16454 MEMB     142      SLPC     C15      CTL5    -0.350000       12.0110           0
     16455 MEMB     142      SLPC     H15A     HL       0.250000       1.00800           0
     16456 MEMB     142      SLPC     H15B     HL       0.250000       1.00800           0
     16457 MEMB     142      SLPC     H15C     HL       0.250000       1.00800           0
     16458 MEMB     142      SLPC     C12      CTL2    -0.100000       12.0110           0
     16459 MEMB     142      SLPC     H12A     HL       0.250000       1.00800           0
     16460 MEMB     142      SLPC     H12B     HL       0.250000       1.00800           0
     16461 MEMB     142      SLPC     C11      CTL2    -0.800000E-01   12.0110           0
     16462 MEMB     142      SLPC     H11A     HAL2     0.900000E-01   1.00800           0
     16463 MEMB     142      SLPC     H11B     HAL2     0.900000E-01   1.00800           0
     16464 MEMB     142      SLPC     P        PL        1.50000       30.9740           0
     16465 MEMB     142      SLPC     O13      O2L     -0.780000       15.9994           0
     16466 MEMB     142      SLPC     O14      O2L     -0.780000       15.9994           0
     16467 MEMB     142      SLPC     O12      OSLP    -0.570000       15.9994           0
     16468 MEMB     142      SLPC     O11      OSLP    -0.570000       15.9994           0
     16469 MEMB     142      SLPC     C1       CTL2    -0.800000E-01   12.0110           0
     16470 MEMB     142      SLPC     HA       HAL2     0.900000E-01   1.00800           0
     16471 MEMB     142      SLPC     HB       HAL2     0.900000E-01   1.00800           0
     16472 MEMB     142      SLPC     C2       CTL1     0.170000       12.0110           0
     16473 MEMB     142      SLPC     HS       HAL1     0.900000E-01   1.00800           0
     16474 MEMB     142      SLPC     O21      OSL     -0.490000       15.9994           0
     16475 MEMB     142      SLPC     C21      CL       0.900000       12.0110           0
     16476 MEMB     142      SLPC     O22      OBL     -0.630000       15.9994           0
     16477 MEMB     142      SLPC     C22      CTL2    -0.220000       12.0110           0
     16478 MEMB     142      SLPC     H2R      HAL2     0.900000E-01   1.00800           0
     16479 MEMB     142      SLPC     H2S      HAL2     0.900000E-01   1.00800           0
     16480 MEMB     142      SLPC     C3       CTL2     0.800000E-01   12.0110           0
     16481 MEMB     142      SLPC     HX       HAL2     0.900000E-01   1.00800           0
     16482 MEMB     142      SLPC     HY       HAL2     0.900000E-01   1.00800           0
     16483 MEMB     142      SLPC     O31      OSL     -0.490000       15.9994           0
     16484 MEMB     142      SLPC     C31      CL       0.900000       12.0110           0
     16485 MEMB     142      SLPC     O32      OBL     -0.630000       15.9994           0
     16486 MEMB     142      SLPC     C32      CTL2    -0.220000       12.0110           0
     16487 MEMB     142      SLPC     H2X      HAL2     0.900000E-01   1.00800           0
     16488 MEMB     142      SLPC     H2Y      HAL2     0.900000E-01   1.00800           0
     16489 MEMB     142      SLPC     C23      CTL2    -0.180000       12.0110           0
     16490 MEMB     142      SLPC     H3R      HAL2     0.900000E-01   1.00800           0
     16491 MEMB     142      SLPC     H3S      HAL2     0.900000E-01   1.00800           0
     16492 MEMB     142      SLPC     C24      CTL2    -0.180000       12.0110           0
     16493 MEMB     142      SLPC     H4R      HAL2     0.900000E-01   1.00800           0
     16494 MEMB     142      SLPC     H4S      HAL2     0.900000E-01   1.00800           0
     16495 MEMB     142      SLPC     C25      CTL2    -0.180000       12.0110           0
     16496 MEMB     142      SLPC     H5R      HAL2     0.900000E-01   1.00800           0
     16497 MEMB     142      SLPC     H5S      HAL2     0.900000E-01   1.00800           0
     16498 MEMB     142      SLPC     C26      CTL2    -0.180000       12.0110           0
     16499 MEMB     142      SLPC     H6R      HAL2     0.900000E-01   1.00800           0
     16500 MEMB     142      SLPC     H6S      HAL2     0.900000E-01   1.00800           0
     16501 MEMB     142      SLPC     C27      CTL2    -0.180000       12.0110           0
     16502 MEMB     142      SLPC     H7R      HAL2     0.900000E-01   1.00800           0
     16503 MEMB     142      SLPC     H7S      HAL2     0.900000E-01   1.00800           0
     16504 MEMB     142      SLPC     C28      CTL2    -0.180000       12.0110           0
     16505 MEMB     142      SLPC     H8R      HAL2     0.900000E-01   1.00800           0
     16506 MEMB     142      SLPC     H8S      HAL2     0.900000E-01   1.00800           0
     16507 MEMB     142      SLPC     C29      CEL1    -0.150000       12.0110           0
     16508 MEMB     142      SLPC     H9R      HEL1     0.150000       1.00800           0
     16509 MEMB     142      SLPC     C210     CEL1    -0.150000       12.0110           0
     16510 MEMB     142      SLPC     H10R     HEL1     0.150000       1.00800           0
     16511 MEMB     142      SLPC     C211     CTL2    -0.180000       12.0110           0
     16512 MEMB     142      SLPC     H11R     HAL2     0.900000E-01   1.00800           0
     16513 MEMB     142      SLPC     H11S     HAL2     0.900000E-01   1.00800           0
     16514 MEMB     142      SLPC     C212     CEL1    -0.150000       12.0110           0
     16515 MEMB     142      SLPC     H12R     HEL1     0.150000       1.00800           0
     16516 MEMB     142      SLPC     C213     CEL1    -0.150000       12.0110           0
     16517 MEMB     142      SLPC     H13R     HEL1     0.150000       1.00800           0
     16518 MEMB     142      SLPC     C214     CTL2    -0.180000       12.0110           0
     16519 MEMB     142      SLPC     H14R     HAL2     0.900000E-01   1.00800           0
     16520 MEMB     142      SLPC     H14S     HAL2     0.900000E-01   1.00800           0
     16521 MEMB     142      SLPC     C215     CTL2    -0.180000       12.0110           0
     16522 MEMB     142      SLPC     H15R     HAL2     0.900000E-01   1.00800           0
     16523 MEMB     142      SLPC     H15S     HAL2     0.900000E-01   1.00800           0
     16524 MEMB     142      SLPC     C216     CTL2    -0.180000       12.0110           0
     16525 MEMB     142      SLPC     H16R     HAL2     0.900000E-01   1.00800           0
     16526 MEMB     142      SLPC     H16S     HAL2     0.900000E-01   1.00800           0
     16527 MEMB     142      SLPC     C217     CTL2    -0.180000       12.0110           0
     16528 MEMB     142      SLPC     H17R     HAL2     0.900000E-01   1.00800           0
     16529 MEMB     142      SLPC     H17S     HAL2     0.900000E-01   1.00800           0
     16530 MEMB     142      SLPC     C218     CTL3    -0.270000       12.0110           0
     16531 MEMB     142      SLPC     H18R     HAL3     0.900000E-01   1.00800           0
     16532 MEMB     142      SLPC     H18S     HAL3     0.900000E-01   1.00800           0
     16533 MEMB     142      SLPC     H18T     HAL3     0.900000E-01   1.00800           0
     16534 MEMB     142      SLPC     C33      CTL2    -0.180000       12.0110           0
     16535 MEMB     142      SLPC     H3X      HAL2     0.900000E-01   1.00800           0
     16536 MEMB     142      SLPC     H3Y      HAL2     0.900000E-01   1.00800           0
     16537 MEMB     142      SLPC     C34      CTL2    -0.180000       12.0110           0
     16538 MEMB     142      SLPC     H4X      HAL2     0.900000E-01   1.00800           0
     16539 MEMB     142      SLPC     H4Y      HAL2     0.900000E-01   1.00800           0
     16540 MEMB     142      SLPC     C35      CTL2    -0.180000       12.0110           0
     16541 MEMB     142      SLPC     H5X      HAL2     0.900000E-01   1.00800           0
     16542 MEMB     142      SLPC     H5Y      HAL2     0.900000E-01   1.00800           0
     16543 MEMB     142      SLPC     C36      CTL2    -0.180000       12.0110           0
     16544 MEMB     142      SLPC     H6X      HAL2     0.900000E-01   1.00800           0
     16545 MEMB     142      SLPC     H6Y      HAL2     0.900000E-01   1.00800           0
     16546 MEMB     142      SLPC     C37      CTL2    -0.180000       12.0110           0
     16547 MEMB     142      SLPC     H7X      HAL2     0.900000E-01   1.00800           0
     16548 MEMB     142      SLPC     H7Y      HAL2     0.900000E-01   1.00800           0
     16549 MEMB     142      SLPC     C38      CTL2    -0.180000       12.0110           0
     16550 MEMB     142      SLPC     H8X      HAL2     0.900000E-01   1.00800           0
     16551 MEMB     142      SLPC     H8Y      HAL2     0.900000E-01   1.00800           0
     16552 MEMB     142      SLPC     C39      CTL2    -0.180000       12.0110           0
     16553 MEMB     142      SLPC     H9X      HAL2     0.900000E-01   1.00800           0
     16554 MEMB     142      SLPC     H9Y      HAL2     0.900000E-01   1.00800           0
     16555 MEMB     142      SLPC     C310     CTL2    -0.180000       12.0110           0
     16556 MEMB     142      SLPC     H10X     HAL2     0.900000E-01   1.00800           0
     16557 MEMB     142      SLPC     H10Y     HAL2     0.900000E-01   1.00800           0
     16558 MEMB     142      SLPC     C311     CTL2    -0.180000       12.0110           0
     16559 MEMB     142      SLPC     H11X     HAL2     0.900000E-01   1.00800           0
     16560 MEMB     142      SLPC     H11Y     HAL2     0.900000E-01   1.00800           0
     16561 MEMB     142      SLPC     C312     CTL2    -0.180000       12.0110           0
     16562 MEMB     142      SLPC     H12X     HAL2     0.900000E-01   1.00800           0
     16563 MEMB     142      SLPC     H12Y     HAL2     0.900000E-01   1.00800           0
     16564 MEMB     142      SLPC     C313     CTL2    -0.180000       12.0110           0
     16565 MEMB     142      SLPC     H13X     HAL2     0.900000E-01   1.00800           0
     16566 MEMB     142      SLPC     H13Y     HAL2     0.900000E-01   1.00800           0
     16567 MEMB     142      SLPC     C314     CTL2    -0.180000       12.0110           0
     16568 MEMB     142      SLPC     H14X     HAL2     0.900000E-01   1.00800           0
     16569 MEMB     142      SLPC     H14Y     HAL2     0.900000E-01   1.00800           0
     16570 MEMB     142      SLPC     C315     CTL2    -0.180000       12.0110           0
     16571 MEMB     142      SLPC     H15X     HAL2     0.900000E-01   1.00800           0
     16572 MEMB     142      SLPC     H15Y     HAL2     0.900000E-01   1.00800           0
     16573 MEMB     142      SLPC     C316     CTL2    -0.180000       12.0110           0
     16574 MEMB     142      SLPC     H16X     HAL2     0.900000E-01   1.00800           0
     16575 MEMB     142      SLPC     H16Y     HAL2     0.900000E-01   1.00800           0
     16576 MEMB     142      SLPC     C317     CTL2    -0.180000       12.0110           0
     16577 MEMB     142      SLPC     H17X     HAL2     0.900000E-01   1.00800           0
     16578 MEMB     142      SLPC     H17Y     HAL2     0.900000E-01   1.00800           0
     16579 MEMB     142      SLPC     C318     CTL3    -0.270000       12.0110           0
     16580 MEMB     142      SLPC     H18X     HAL3     0.900000E-01   1.00800           0
     16581 MEMB     142      SLPC     H18Y     HAL3     0.900000E-01   1.00800           0
     16582 MEMB     142      SLPC     H18Z     HAL3     0.900000E-01   1.00800           0
     16583 MEMB     143      CHL1     C3       CRL1     0.140000       12.0110           0
     16584 MEMB     143      CHL1     H3       HGA1     0.900000E-01   1.00800           0
     16585 MEMB     143      CHL1     O3       OHL     -0.660000       15.9994           0
     16586 MEMB     143      CHL1     H3'      HOL      0.430000       1.00800           0
     16587 MEMB     143      CHL1     C4       CRL2    -0.180000       12.0110           0
     16588 MEMB     143      CHL1     H4A      HGA2     0.900000E-01   1.00800           0
     16589 MEMB     143      CHL1     H4B      HGA2     0.900000E-01   1.00800           0
     16590 MEMB     143      CHL1     C5       CEL1      0.00000       12.0110           0
     16591 MEMB     143      CHL1     C6       CEL1    -0.150000       12.0110           0
     16592 MEMB     143      CHL1     H6       HEL1     0.150000       1.00800           0
     16593 MEMB     143      CHL1     C7       CRL2    -0.180000       12.0110           0
     16594 MEMB     143      CHL1     H7A      HGA2     0.900000E-01   1.00800           0
     16595 MEMB     143      CHL1     H7B      HGA2     0.900000E-01   1.00800           0
     16596 MEMB     143      CHL1     C8       CRL1    -0.900000E-01   12.0110           0
     16597 MEMB     143      CHL1     H8       HGA1     0.900000E-01   1.00800           0
     16598 MEMB     143      CHL1     C14      CRL1    -0.900000E-01   12.0110           0
     16599 MEMB     143      CHL1     H14      HGA1     0.900000E-01   1.00800           0
     16600 MEMB     143      CHL1     C15      CRL2    -0.180000       12.0110           0
     16601 MEMB     143      CHL1     H15A     HGA2     0.900000E-01   1.00800           0
     16602 MEMB     143      CHL1     H15B     HGA2     0.900000E-01   1.00800           0
     16603 MEMB     143      CHL1     C16      CRL2    -0.180000       12.0110           0
     16604 MEMB     143      CHL1     H16A     HGA2     0.900000E-01   1.00800           0
     16605 MEMB     143      CHL1     H16B     HGA2     0.900000E-01   1.00800           0
     16606 MEMB     143      CHL1     C17      CRL1    -0.900000E-01   12.0110           0
     16607 MEMB     143      CHL1     H17      HGA1     0.900000E-01   1.00800           0
     16608 MEMB     143      CHL1     C13      CRL1      0.00000       12.0110           0
     16609 MEMB     143      CHL1     C18      CTL3    -0.270000       12.0110           0
     16610 MEMB     143      CHL1     H18A     HAL3     0.900000E-01   1.00800           0
     16611 MEMB     143      CHL1     H18B     HAL3     0.900000E-01   1.00800           0
     16612 MEMB     143      CHL1     H18C     HAL3     0.900000E-01   1.00800           0
     16613 MEMB     143      CHL1     C12      CRL2    -0.180000       12.0110           0
     16614 MEMB     143      CHL1     H12A     HGA2     0.900000E-01   1.00800           0
     16615 MEMB     143      CHL1     H12B     HGA2     0.900000E-01   1.00800           0
     16616 MEMB     143      CHL1     C11      CRL2    -0.180000       12.0110           0
     16617 MEMB     143      CHL1     H11A     HGA2     0.900000E-01   1.00800           0
     16618 MEMB     143      CHL1     H11B     HGA2     0.900000E-01   1.00800           0
     16619 MEMB     143      CHL1     C9       CRL1    -0.900000E-01   12.0110           0
     16620 MEMB     143      CHL1     H9       HGA1     0.900000E-01   1.00800           0
     16621 MEMB     143      CHL1     C10      CRL1      0.00000       12.0110           0
     16622 MEMB     143      CHL1     C19      CTL3    -0.270000       12.0110           0
     16623 MEMB     143      CHL1     H19A     HAL3     0.900000E-01   1.00800           0
     16624 MEMB     143      CHL1     H19B     HAL3     0.900000E-01   1.00800           0
     16625 MEMB     143      CHL1     H19C     HAL3     0.900000E-01   1.00800           0
     16626 MEMB     143      CHL1     C1       CRL2    -0.180000       12.0110           0
     16627 MEMB     143      CHL1     H1A      HGA2     0.900000E-01   1.00800           0
     16628 MEMB     143      CHL1     H1B      HGA2     0.900000E-01   1.00800           0
     16629 MEMB     143      CHL1     C2       CRL2    -0.180000       12.0110           0
     16630 MEMB     143      CHL1     H2A      HGA2     0.900000E-01   1.00800           0
     16631 MEMB     143      CHL1     H2B      HGA2     0.900000E-01   1.00800           0
     16632 MEMB     143      CHL1     C20      CTL1    -0.900000E-01   12.0110           0
     16633 MEMB     143      CHL1     H20      HAL1     0.900000E-01   1.00800           0
     16634 MEMB     143      CHL1     C21      CTL3    -0.270000       12.0110           0
     16635 MEMB     143      CHL1     H21A     HAL3     0.900000E-01   1.00800           0
     16636 MEMB     143      CHL1     H21B     HAL3     0.900000E-01   1.00800           0
     16637 MEMB     143      CHL1     H21C     HAL3     0.900000E-01   1.00800           0
     16638 MEMB     143      CHL1     C22      CTL2    -0.180000       12.0110           0
     16639 MEMB     143      CHL1     H22A     HAL2     0.900000E-01   1.00800           0
     16640 MEMB     143      CHL1     H22B     HAL2     0.900000E-01   1.00800           0
     16641 MEMB     143      CHL1     C23      CTL2    -0.180000       12.0110           0
     16642 MEMB     143      CHL1     H23A     HAL2     0.900000E-01   1.00800           0
     16643 MEMB     143      CHL1     H23B     HAL2     0.900000E-01   1.00800           0
     16644 MEMB     143      CHL1     C24      CTL2    -0.180000       12.0110           0
     16645 MEMB     143      CHL1     H24A     HAL2     0.900000E-01   1.00800           0
     16646 MEMB     143      CHL1     H24B     HAL2     0.900000E-01   1.00800           0
     16647 MEMB     143      CHL1     C25      CTL1    -0.900000E-01   12.0110           0
     16648 MEMB     143      CHL1     H25      HAL1     0.900000E-01   1.00800           0
     16649 MEMB     143      CHL1     C26      CTL3    -0.270000       12.0110           0
     16650 MEMB     143      CHL1     H26A     HAL3     0.900000E-01   1.00800           0
     16651 MEMB     143      CHL1     H26B     HAL3     0.900000E-01   1.00800           0
     16652 MEMB     143      CHL1     H26C     HAL3     0.900000E-01   1.00800           0
     16653 MEMB     143      CHL1     C27      CTL3    -0.270000       12.0110           0
     16654 MEMB     143      CHL1     H27A     HAL3     0.900000E-01   1.00800           0
     16655 MEMB     143      CHL1     H27B     HAL3     0.900000E-01   1.00800           0
     16656 MEMB     143      CHL1     H27C     HAL3     0.900000E-01   1.00800           0
     16657 MEMB     144      SOPE     N        NH3L    -0.300000       14.0070           0
     16658 MEMB     144      SOPE     HN1      HCL      0.330000       1.00800           0
     16659 MEMB     144      SOPE     HN2      HCL      0.330000       1.00800           0
     16660 MEMB     144      SOPE     HN3      HCL      0.330000       1.00800           0
     16661 MEMB     144      SOPE     C12      CTL2     0.130000       12.0110           0
     16662 MEMB     144      SOPE     H12A     HAL2     0.900000E-01   1.00800           0
     16663 MEMB     144      SOPE     H12B     HAL2     0.900000E-01   1.00800           0
     16664 MEMB     144      SOPE     C11      CTL2    -0.800000E-01   12.0110           0
     16665 MEMB     144      SOPE     H11A     HAL2     0.900000E-01   1.00800           0
     16666 MEMB     144      SOPE     H11B     HAL2     0.900000E-01   1.00800           0
     16667 MEMB     144      SOPE     P        PL        1.50000       30.9740           0
     16668 MEMB     144      SOPE     O13      O2L     -0.780000       15.9994           0
     16669 MEMB     144      SOPE     O14      O2L     -0.780000       15.9994           0
     16670 MEMB     144      SOPE     O12      OSLP    -0.570000       15.9994           0
     16671 MEMB     144      SOPE     O11      OSLP    -0.570000       15.9994           0
     16672 MEMB     144      SOPE     C1       CTL2    -0.800000E-01   12.0110           0
     16673 MEMB     144      SOPE     HA       HAL2     0.900000E-01   1.00800           0
     16674 MEMB     144      SOPE     HB       HAL2     0.900000E-01   1.00800           0
     16675 MEMB     144      SOPE     C2       CTL1     0.170000       12.0110           0
     16676 MEMB     144      SOPE     HS       HAL1     0.900000E-01   1.00800           0
     16677 MEMB     144      SOPE     O21      OSL     -0.490000       15.9994           0
     16678 MEMB     144      SOPE     C21      CL       0.900000       12.0110           0
     16679 MEMB     144      SOPE     O22      OBL     -0.630000       15.9994           0
     16680 MEMB     144      SOPE     C22      CTL2    -0.220000       12.0110           0
     16681 MEMB     144      SOPE     H2R      HAL2     0.900000E-01   1.00800           0
     16682 MEMB     144      SOPE     H2S      HAL2     0.900000E-01   1.00800           0
     16683 MEMB     144      SOPE     C3       CTL2     0.800000E-01   12.0110           0
     16684 MEMB     144      SOPE     HX       HAL2     0.900000E-01   1.00800           0
     16685 MEMB     144      SOPE     HY       HAL2     0.900000E-01   1.00800           0
     16686 MEMB     144      SOPE     O31      OSL     -0.490000       15.9994           0
     16687 MEMB     144      SOPE     C31      CL       0.900000       12.0110           0
     16688 MEMB     144      SOPE     O32      OBL     -0.630000       15.9994           0
     16689 MEMB     144      SOPE     C32      CTL2    -0.220000       12.0110           0
     16690 MEMB     144      SOPE     H2X      HAL2     0.900000E-01   1.00800           0
     16691 MEMB     144      SOPE     H2Y      HAL2     0.900000E-01   1.00800           0
     16692 MEMB     144      SOPE     C23      CTL2    -0.180000       12.0110           0
     16693 MEMB     144      SOPE     H3R      HAL2     0.900000E-01   1.00800           0
     16694 MEMB     144      SOPE     H3S      HAL2     0.900000E-01   1.00800           0
     16695 MEMB     144      SOPE     C24      CTL2    -0.180000       12.0110           0
     16696 MEMB     144      SOPE     H4R      HAL2     0.900000E-01   1.00800           0
     16697 MEMB     144      SOPE     H4S      HAL2     0.900000E-01   1.00800           0
     16698 MEMB     144      SOPE     C25      CTL2    -0.180000       12.0110           0
     16699 MEMB     144      SOPE     H5R      HAL2     0.900000E-01   1.00800           0
     16700 MEMB     144      SOPE     H5S      HAL2     0.900000E-01   1.00800           0
     16701 MEMB     144      SOPE     C26      CTL2    -0.180000       12.0110           0
     16702 MEMB     144      SOPE     H6R      HAL2     0.900000E-01   1.00800           0
     16703 MEMB     144      SOPE     H6S      HAL2     0.900000E-01   1.00800           0
     16704 MEMB     144      SOPE     C27      CTL2    -0.180000       12.0110           0
     16705 MEMB     144      SOPE     H7R      HAL2     0.900000E-01   1.00800           0
     16706 MEMB     144      SOPE     H7S      HAL2     0.900000E-01   1.00800           0
     16707 MEMB     144      SOPE     C28      CTL2    -0.180000       12.0110           0
     16708 MEMB     144      SOPE     H8R      HAL2     0.900000E-01   1.00800           0
     16709 MEMB     144      SOPE     H8S      HAL2     0.900000E-01   1.00800           0
     16710 MEMB     144      SOPE     C29      CEL1    -0.150000       12.0110           0
     16711 MEMB     144      SOPE     H91      HEL1     0.150000       1.00800           0
     16712 MEMB     144      SOPE     C210     CEL1    -0.150000       12.0110           0
     16713 MEMB     144      SOPE     H101     HEL1     0.150000       1.00800           0
     16714 MEMB     144      SOPE     C211     CTL2    -0.180000       12.0110           0
     16715 MEMB     144      SOPE     H11R     HAL2     0.900000E-01   1.00800           0
     16716 MEMB     144      SOPE     H11S     HAL2     0.900000E-01   1.00800           0
     16717 MEMB     144      SOPE     C212     CTL2    -0.180000       12.0110           0
     16718 MEMB     144      SOPE     H12R     HAL2     0.900000E-01   1.00800           0
     16719 MEMB     144      SOPE     H12S     HAL2     0.900000E-01   1.00800           0
     16720 MEMB     144      SOPE     C213     CTL2    -0.180000       12.0110           0
     16721 MEMB     144      SOPE     H13R     HAL2     0.900000E-01   1.00800           0
     16722 MEMB     144      SOPE     H13S     HAL2     0.900000E-01   1.00800           0
     16723 MEMB     144      SOPE     C214     CTL2    -0.180000       12.0110           0
     16724 MEMB     144      SOPE     H14R     HAL2     0.900000E-01   1.00800           0
     16725 MEMB     144      SOPE     H14S     HAL2     0.900000E-01   1.00800           0
     16726 MEMB     144      SOPE     C215     CTL2    -0.180000       12.0110           0
     16727 MEMB     144      SOPE     H15R     HAL2     0.900000E-01   1.00800           0
     16728 MEMB     144      SOPE     H15S     HAL2     0.900000E-01   1.00800           0
     16729 MEMB     144      SOPE     C216     CTL2    -0.180000       12.0110           0
     16730 MEMB     144      SOPE     H16R     HAL2     0.900000E-01   1.00800           0
     16731 MEMB     144      SOPE     H16S     HAL2     0.900000E-01   1.00800           0
     16732 MEMB     144      SOPE     C217     CTL2    -0.180000       12.0110           0
     16733 MEMB     144      SOPE     H17R     HAL2     0.900000E-01   1.00800           0
     16734 MEMB     144      SOPE     H17S     HAL2     0.900000E-01   1.00800           0
     16735 MEMB     144      SOPE     C218     CTL3    -0.270000       12.0110           0
     16736 MEMB     144      SOPE     H18R     HAL3     0.900000E-01   1.00800           0
     16737 MEMB     144      SOPE     H18S     HAL3     0.900000E-01   1.00800           0
     16738 MEMB     144      SOPE     H18T     HAL3     0.900000E-01   1.00800           0
     16739 MEMB     144      SOPE     C33      CTL2    -0.180000       12.0110           0
     16740 MEMB     144      SOPE     H3X      HAL2     0.900000E-01   1.00800           0
     16741 MEMB     144      SOPE     H3Y      HAL2     0.900000E-01   1.00800           0
     16742 MEMB     144      SOPE     C34      CTL2    -0.180000       12.0110           0
     16743 MEMB     144      SOPE     H4X      HAL2     0.900000E-01   1.00800           0
     16744 MEMB     144      SOPE     H4Y      HAL2     0.900000E-01   1.00800           0
     16745 MEMB     144      SOPE     C35      CTL2    -0.180000       12.0110           0
     16746 MEMB     144      SOPE     H5X      HAL2     0.900000E-01   1.00800           0
     16747 MEMB     144      SOPE     H5Y      HAL2     0.900000E-01   1.00800           0
     16748 MEMB     144      SOPE     C36      CTL2    -0.180000       12.0110           0
     16749 MEMB     144      SOPE     H6X      HAL2     0.900000E-01   1.00800           0
     16750 MEMB     144      SOPE     H6Y      HAL2     0.900000E-01   1.00800           0
     16751 MEMB     144      SOPE     C37      CTL2    -0.180000       12.0110           0
     16752 MEMB     144      SOPE     H7X      HAL2     0.900000E-01   1.00800           0
     16753 MEMB     144      SOPE     H7Y      HAL2     0.900000E-01   1.00800           0
     16754 MEMB     144      SOPE     C38      CTL2    -0.180000       12.0110           0
     16755 MEMB     144      SOPE     H8X      HAL2     0.900000E-01   1.00800           0
     16756 MEMB     144      SOPE     H8Y      HAL2     0.900000E-01   1.00800           0
     16757 MEMB     144      SOPE     C39      CTL2    -0.180000       12.0110           0
     16758 MEMB     144      SOPE     H9X      HAL2     0.900000E-01   1.00800           0
     16759 MEMB     144      SOPE     H9Y      HAL2     0.900000E-01   1.00800           0
     16760 MEMB     144      SOPE     C310     CTL2    -0.180000       12.0110           0
     16761 MEMB     144      SOPE     H10X     HAL2     0.900000E-01   1.00800           0
     16762 MEMB     144      SOPE     H10Y     HAL2     0.900000E-01   1.00800           0
     16763 MEMB     144      SOPE     C311     CTL2    -0.180000       12.0110           0
     16764 MEMB     144      SOPE     H11X     HAL2     0.900000E-01   1.00800           0
     16765 MEMB     144      SOPE     H11Y     HAL2     0.900000E-01   1.00800           0
     16766 MEMB     144      SOPE     C312     CTL2    -0.180000       12.0110           0
     16767 MEMB     144      SOPE     H12X     HAL2     0.900000E-01   1.00800           0
     16768 MEMB     144      SOPE     H12Y     HAL2     0.900000E-01   1.00800           0
     16769 MEMB     144      SOPE     C313     CTL2    -0.180000       12.0110           0
     16770 MEMB     144      SOPE     H13X     HAL2     0.900000E-01   1.00800           0
     16771 MEMB     144      SOPE     H13Y     HAL2     0.900000E-01   1.00800           0
     16772 MEMB     144      SOPE     C314     CTL2    -0.180000       12.0110           0
     16773 MEMB     144      SOPE     H14X     HAL2     0.900000E-01   1.00800           0
     16774 MEMB     144      SOPE     H14Y     HAL2     0.900000E-01   1.00800           0
     16775 MEMB     144      SOPE     C315     CTL2    -0.180000       12.0110           0
     16776 MEMB     144      SOPE     H15X     HAL2     0.900000E-01   1.00800           0
     16777 MEMB     144      SOPE     H15Y     HAL2     0.900000E-01   1.00800           0
     16778 MEMB     144      SOPE     C316     CTL2    -0.180000       12.0110           0
     16779 MEMB     144      SOPE     H16X     HAL2     0.900000E-01   1.00800           0
     16780 MEMB     144      SOPE     H16Y     HAL2     0.900000E-01   1.00800           0
     16781 MEMB     144      SOPE     C317     CTL2    -0.180000       12.0110           0
     16782 MEMB     144      SOPE     H17X     HAL2     0.900000E-01   1.00800           0
     16783 MEMB     144      SOPE     H17Y     HAL2     0.900000E-01   1.00800           0
     16784 MEMB     144      SOPE     C318     CTL3    -0.270000       12.0110           0
     16785 MEMB     144      SOPE     H18X     HAL3     0.900000E-01   1.00800           0
     16786 MEMB     144      SOPE     H18Y     HAL3     0.900000E-01   1.00800           0
     16787 MEMB     144      SOPE     H18Z     HAL3     0.900000E-01   1.00800           0
     16788 MEMB     145      OSM      N        NTL     -0.600000       14.0070           0
     16789 MEMB     145      OSM      C15      CTL5    -0.350000       12.0110           0
     16790 MEMB     145      OSM      H15A     HL       0.250000       1.00800           0
     16791 MEMB     145      OSM      H15B     HL       0.250000       1.00800           0
     16792 MEMB     145      OSM      H15C     HL       0.250000       1.00800           0
     16793 MEMB     145      OSM      C14      CTL5    -0.350000       12.0110           0
     16794 MEMB     145      OSM      H14A     HL       0.250000       1.00800           0
     16795 MEMB     145      OSM      H14B     HL       0.250000       1.00800           0
     16796 MEMB     145      OSM      H14C     HL       0.250000       1.00800           0
     16797 MEMB     145      OSM      C13      CTL5    -0.350000       12.0110           0
     16798 MEMB     145      OSM      H13A     HL       0.250000       1.00800           0
     16799 MEMB     145      OSM      H13B     HL       0.250000       1.00800           0
     16800 MEMB     145      OSM      H13C     HL       0.250000       1.00800           0
     16801 MEMB     145      OSM      C12      CTL2    -0.100000       12.0110           0
     16802 MEMB     145      OSM      H12A     HL       0.250000       1.00800           0
     16803 MEMB     145      OSM      H12B     HL       0.250000       1.00800           0
     16804 MEMB     145      OSM      C11      CTL2    -0.800000E-01   12.0110           0
     16805 MEMB     145      OSM      H11A     HAL2     0.900000E-01   1.00800           0
     16806 MEMB     145      OSM      H11B     HAL2     0.900000E-01   1.00800           0
     16807 MEMB     145      OSM      P        PL        1.50000       30.9740           0
     16808 MEMB     145      OSM      O13      O2L     -0.780000       15.9994           0
     16809 MEMB     145      OSM      O14      O2L     -0.780000       15.9994           0
     16810 MEMB     145      OSM      O11      OSLP    -0.570000       15.9994           0
     16811 MEMB     145      OSM      O12      OSLP    -0.570000       15.9994           0
     16812 MEMB     145      OSM      C1S      CTL2    -0.800000E-01   12.0110           0
     16813 MEMB     145      OSM      H1S      HAL2     0.900000E-01   1.00800           0
     16814 MEMB     145      OSM      H1T      HAL2     0.900000E-01   1.00800           0
     16815 MEMB     145      OSM      NF       NHL     -0.700000       14.0070           0
     16816 MEMB     145      OSM      HNF      H        0.350000       1.00800           0
     16817 MEMB     145      OSM      C2S      CTL1     0.300000       12.0110           0
     16818 MEMB     145      OSM      H2S      HAL1     0.500000E-01   1.00800           0
     16819 MEMB     145      OSM      C3S      CTO1     0.500000       12.0110           0
     16820 MEMB     145      OSM      H3S      HAL1    -0.110000       1.00800           0
     16821 MEMB     145      OSM      O3       OHL     -0.690000       15.9994           0
     16822 MEMB     145      OSM      HO3      HOL      0.300000       1.00800           0
     16823 MEMB     145      OSM      C4S      CEL3    -0.150000       12.0110           0
     16824 MEMB     145      OSM      H4S      HEL1     0.150000       1.00800           0
     16825 MEMB     145      OSM      C5S      CEL3    -0.150000       12.0110           0
     16826 MEMB     145      OSM      H5S      HEL1     0.150000       1.00800           0
     16827 MEMB     145      OSM      C6S      CTL2    -0.180000       12.0110           0
     16828 MEMB     145      OSM      H6S      HAL2     0.900000E-01   1.00800           0
     16829 MEMB     145      OSM      H6T      HAL2     0.900000E-01   1.00800           0
     16830 MEMB     145      OSM      C7S      CTL2    -0.180000       12.0110           0
     16831 MEMB     145      OSM      H7S      HAL2     0.900000E-01   1.00800           0
     16832 MEMB     145      OSM      H7T      HAL2     0.900000E-01   1.00800           0
     16833 MEMB     145      OSM      C8S      CTL2    -0.180000       12.0110           0
     16834 MEMB     145      OSM      H8S      HAL2     0.900000E-01   1.00800           0
     16835 MEMB     145      OSM      H8T      HAL2     0.900000E-01   1.00800           0
     16836 MEMB     145      OSM      C9S      CTL2    -0.180000       12.0110           0
     16837 MEMB     145      OSM      H9S      HAL2     0.900000E-01   1.00800           0
     16838 MEMB     145      OSM      H9T      HAL2     0.900000E-01   1.00800           0
     16839 MEMB     145      OSM      C10S     CTL2    -0.180000       12.0110           0
     16840 MEMB     145      OSM      H10S     HAL2     0.900000E-01   1.00800           0
     16841 MEMB     145      OSM      H10T     HAL2     0.900000E-01   1.00800           0
     16842 MEMB     145      OSM      C11S     CTL2    -0.180000       12.0110           0
     16843 MEMB     145      OSM      H11S     HAL2     0.900000E-01   1.00800           0
     16844 MEMB     145      OSM      H11T     HAL2     0.900000E-01   1.00800           0
     16845 MEMB     145      OSM      C12S     CTL2    -0.180000       12.0110           0
     16846 MEMB     145      OSM      H12S     HAL2     0.900000E-01   1.00800           0
     16847 MEMB     145      OSM      H12T     HAL2     0.900000E-01   1.00800           0
     16848 MEMB     145      OSM      C13S     CTL2    -0.180000       12.0110           0
     16849 MEMB     145      OSM      H13S     HAL2     0.900000E-01   1.00800           0
     16850 MEMB     145      OSM      H13T     HAL2     0.900000E-01   1.00800           0
     16851 MEMB     145      OSM      C14S     CTL2    -0.180000       12.0110           0
     16852 MEMB     145      OSM      H14S     HAL2     0.900000E-01   1.00800           0
     16853 MEMB     145      OSM      H14T     HAL2     0.900000E-01   1.00800           0
     16854 MEMB     145      OSM      C15S     CTL2    -0.180000       12.0110           0
     16855 MEMB     145      OSM      H15S     HAL2     0.900000E-01   1.00800           0
     16856 MEMB     145      OSM      H15T     HAL2     0.900000E-01   1.00800           0
     16857 MEMB     145      OSM      C16S     CTL2    -0.180000       12.0110           0
     16858 MEMB     145      OSM      H16S     HAL2     0.900000E-01   1.00800           0
     16859 MEMB     145      OSM      H16T     HAL2     0.900000E-01   1.00800           0
     16860 MEMB     145      OSM      C17S     CTL2    -0.180000       12.0110           0
     16861 MEMB     145      OSM      H17S     HAL2     0.900000E-01   1.00800           0
     16862 MEMB     145      OSM      H17T     HAL2     0.900000E-01   1.00800           0
     16863 MEMB     145      OSM      C18S     CTL3    -0.270000       12.0110           0
     16864 MEMB     145      OSM      H18S     HAL3     0.900000E-01   1.00800           0
     16865 MEMB     145      OSM      H18T     HAL3     0.900000E-01   1.00800           0
     16866 MEMB     145      OSM      H18U     HAL3     0.900000E-01   1.00800           0
     16867 MEMB     145      OSM      C1F      C        0.550000       12.0110           0
     16868 MEMB     145      OSM      OF       O       -0.600000       15.9994           0
     16869 MEMB     145      OSM      C2F      CTL2    -0.700000E-01   12.0110           0
     16870 MEMB     145      OSM      H2F      HAL2     0.600000E-01   1.00800           0
     16871 MEMB     145      OSM      H2G      HAL2     0.600000E-01   1.00800           0
     16872 MEMB     145      OSM      C3F      CTL2    -0.180000       12.0110           0
     16873 MEMB     145      OSM      H3F      HAL2     0.900000E-01   1.00800           0
     16874 MEMB     145      OSM      H3G      HAL2     0.900000E-01   1.00800           0
     16875 MEMB     145      OSM      C4F      CTL2    -0.180000       12.0110           0
     16876 MEMB     145      OSM      H4F      HAL2     0.900000E-01   1.00800           0
     16877 MEMB     145      OSM      H4G      HAL2     0.900000E-01   1.00800           0
     16878 MEMB     145      OSM      C5F      CTL2    -0.180000       12.0110           0
     16879 MEMB     145      OSM      H5F      HAL2     0.900000E-01   1.00800           0
     16880 MEMB     145      OSM      H5G      HAL2     0.900000E-01   1.00800           0
     16881 MEMB     145      OSM      C6F      CTL2    -0.180000       12.0110           0
     16882 MEMB     145      OSM      H6F      HAL2     0.900000E-01   1.00800           0
     16883 MEMB     145      OSM      H6G      HAL2     0.900000E-01   1.00800           0
     16884 MEMB     145      OSM      C7F      CTL2    -0.180000       12.0110           0
     16885 MEMB     145      OSM      H7F      HAL2     0.900000E-01   1.00800           0
     16886 MEMB     145      OSM      H7G      HAL2     0.900000E-01   1.00800           0
     16887 MEMB     145      OSM      C8F      CTL2    -0.180000       12.0110           0
     16888 MEMB     145      OSM      H8F      HAL2     0.900000E-01   1.00800           0
     16889 MEMB     145      OSM      H8G      HAL2     0.900000E-01   1.00800           0
     16890 MEMB     145      OSM      C9F      CEL1    -0.150000       12.0110           0
     16891 MEMB     145      OSM      H9F      HEL1     0.150000       1.00800           0
     16892 MEMB     145      OSM      C10F     CEL1    -0.150000       12.0110           0
     16893 MEMB     145      OSM      H10F     HEL1     0.150000       1.00800           0
     16894 MEMB     145      OSM      C11F     CTL2    -0.180000       12.0110           0
     16895 MEMB     145      OSM      H11F     HAL2     0.900000E-01   1.00800           0
     16896 MEMB     145      OSM      H11G     HAL2     0.900000E-01   1.00800           0
     16897 MEMB     145      OSM      C12F     CTL2    -0.180000       12.0110           0
     16898 MEMB     145      OSM      H12F     HAL2     0.900000E-01   1.00800           0
     16899 MEMB     145      OSM      H12G     HAL2     0.900000E-01   1.00800           0
     16900 MEMB     145      OSM      C13F     CTL2    -0.180000       12.0110           0
     16901 MEMB     145      OSM      H13F     HAL2     0.900000E-01   1.00800           0
     16902 MEMB     145      OSM      H13G     HAL2     0.900000E-01   1.00800           0
     16903 MEMB     145      OSM      C14F     CTL2    -0.180000       12.0110           0
     16904 MEMB     145      OSM      H14F     HAL2     0.900000E-01   1.00800           0
     16905 MEMB     145      OSM      H14G     HAL2     0.900000E-01   1.00800           0
     16906 MEMB     145      OSM      C15F     CTL2    -0.180000       12.0110           0
     16907 MEMB     145      OSM      H15F     HAL2     0.900000E-01   1.00800           0
     16908 MEMB     145      OSM      H15G     HAL2     0.900000E-01   1.00800           0
     16909 MEMB     145      OSM      C16F     CTL2    -0.180000       12.0110           0
     16910 MEMB     145      OSM      H16F     HAL2     0.900000E-01   1.00800           0
     16911 MEMB     145      OSM      H16G     HAL2     0.900000E-01   1.00800           0
     16912 MEMB     145      OSM      C17F     CTL2    -0.180000       12.0110           0
     16913 MEMB     145      OSM      H17F     HAL2     0.900000E-01   1.00800           0
     16914 MEMB     145      OSM      H17G     HAL2     0.900000E-01   1.00800           0
     16915 MEMB     145      OSM      C18F     CTL3    -0.270000       12.0110           0
     16916 MEMB     145      OSM      H18F     HAL3     0.900000E-01   1.00800           0
     16917 MEMB     145      OSM      H18G     HAL3     0.900000E-01   1.00800           0
     16918 MEMB     145      OSM      H18H     HAL3     0.900000E-01   1.00800           0
     16919 MEMB     146      SAPE     N        NH3L    -0.300000       14.0070           0
     16920 MEMB     146      SAPE     HN1      HCL      0.330000       1.00800           0
     16921 MEMB     146      SAPE     HN2      HCL      0.330000       1.00800           0
     16922 MEMB     146      SAPE     HN3      HCL      0.330000       1.00800           0
     16923 MEMB     146      SAPE     C12      CTL2     0.130000       12.0110           0
     16924 MEMB     146      SAPE     H12A     HAL2     0.900000E-01   1.00800           0
     16925 MEMB     146      SAPE     H12B     HAL2     0.900000E-01   1.00800           0
     16926 MEMB     146      SAPE     C11      CTL2    -0.800000E-01   12.0110           0
     16927 MEMB     146      SAPE     H11A     HAL2     0.900000E-01   1.00800           0
     16928 MEMB     146      SAPE     H11B     HAL2     0.900000E-01   1.00800           0
     16929 MEMB     146      SAPE     P        PL        1.50000       30.9740           0
     16930 MEMB     146      SAPE     O13      O2L     -0.780000       15.9994           0
     16931 MEMB     146      SAPE     O14      O2L     -0.780000       15.9994           0
     16932 MEMB     146      SAPE     O12      OSLP    -0.570000       15.9994           0
     16933 MEMB     146      SAPE     O11      OSLP    -0.570000       15.9994           0
     16934 MEMB     146      SAPE     C1       CTL2    -0.800000E-01   12.0110           0
     16935 MEMB     146      SAPE     HA       HAL2     0.900000E-01   1.00800           0
     16936 MEMB     146      SAPE     HB       HAL2     0.900000E-01   1.00800           0
     16937 MEMB     146      SAPE     C2       CTL1     0.170000       12.0110           0
     16938 MEMB     146      SAPE     HS       HAL1     0.900000E-01   1.00800           0
     16939 MEMB     146      SAPE     O21      OSL     -0.490000       15.9994           0
     16940 MEMB     146      SAPE     C21      CL       0.900000       12.0110           0
     16941 MEMB     146      SAPE     O22      OBL     -0.630000       15.9994           0
     16942 MEMB     146      SAPE     C22      CTL2    -0.220000       12.0110           0
     16943 MEMB     146      SAPE     H2R      HAL2     0.900000E-01   1.00800           0
     16944 MEMB     146      SAPE     H2S      HAL2     0.900000E-01   1.00800           0
     16945 MEMB     146      SAPE     C3       CTL2     0.800000E-01   12.0110           0
     16946 MEMB     146      SAPE     HX       HAL2     0.900000E-01   1.00800           0
     16947 MEMB     146      SAPE     HY       HAL2     0.900000E-01   1.00800           0
     16948 MEMB     146      SAPE     O31      OSL     -0.490000       15.9994           0
     16949 MEMB     146      SAPE     C31      CL       0.900000       12.0110           0
     16950 MEMB     146      SAPE     O32      OBL     -0.630000       15.9994           0
     16951 MEMB     146      SAPE     C32      CTL2    -0.220000       12.0110           0
     16952 MEMB     146      SAPE     H2X      HAL2     0.900000E-01   1.00800           0
     16953 MEMB     146      SAPE     H2Y      HAL2     0.900000E-01   1.00800           0
     16954 MEMB     146      SAPE     C23      CTL2    -0.180000       12.0110           0
     16955 MEMB     146      SAPE     H3R      HAL2     0.900000E-01   1.00800           0
     16956 MEMB     146      SAPE     H3S      HAL2     0.900000E-01   1.00800           0
     16957 MEMB     146      SAPE     C24      CTL2    -0.180000       12.0110           0
     16958 MEMB     146      SAPE     H4R      HAL2     0.900000E-01   1.00800           0
     16959 MEMB     146      SAPE     H4S      HAL2     0.900000E-01   1.00800           0
     16960 MEMB     146      SAPE     C25      CEL1    -0.150000       12.0110           0
     16961 MEMB     146      SAPE     H5R      HEL1     0.150000       1.00800           0
     16962 MEMB     146      SAPE     C26      CEL1    -0.150000       12.0110           0
     16963 MEMB     146      SAPE     H6R      HEL1     0.150000       1.00800           0
     16964 MEMB     146      SAPE     C27      CTL2    -0.180000       12.0110           0
     16965 MEMB     146      SAPE     H7R      HAL2     0.900000E-01   1.00800           0
     16966 MEMB     146      SAPE     H7S      HAL2     0.900000E-01   1.00800           0
     16967 MEMB     146      SAPE     C28      CEL1    -0.150000       12.0110           0
     16968 MEMB     146      SAPE     H8R      HEL1     0.150000       1.00800           0
     16969 MEMB     146      SAPE     C29      CEL1    -0.150000       12.0110           0
     16970 MEMB     146      SAPE     H9R      HEL1     0.150000       1.00800           0
     16971 MEMB     146      SAPE     C210     CTL2    -0.180000       12.0110           0
     16972 MEMB     146      SAPE     H10R     HAL2     0.900000E-01   1.00800           0
     16973 MEMB     146      SAPE     H10S     HAL2     0.900000E-01   1.00800           0
     16974 MEMB     146      SAPE     C211     CEL1    -0.150000       12.0110           0
     16975 MEMB     146      SAPE     H11R     HEL1     0.150000       1.00800           0
     16976 MEMB     146      SAPE     C212     CEL1    -0.150000       12.0110           0
     16977 MEMB     146      SAPE     H12R     HEL1     0.150000       1.00800           0
     16978 MEMB     146      SAPE     C213     CTL2    -0.180000       12.0110           0
     16979 MEMB     146      SAPE     H13R     HAL2     0.900000E-01   1.00800           0
     16980 MEMB     146      SAPE     H13S     HAL2     0.900000E-01   1.00800           0
     16981 MEMB     146      SAPE     C214     CEL1    -0.150000       12.0110           0
     16982 MEMB     146      SAPE     H14R     HEL1     0.150000       1.00800           0
     16983 MEMB     146      SAPE     C215     CEL1    -0.150000       12.0110           0
     16984 MEMB     146      SAPE     H15R     HEL1     0.150000       1.00800           0
     16985 MEMB     146      SAPE     C216     CTL2    -0.180000       12.0110           0
     16986 MEMB     146      SAPE     H16R     HAL2     0.900000E-01   1.00800           0
     16987 MEMB     146      SAPE     H16S     HAL2     0.900000E-01   1.00800           0
     16988 MEMB     146      SAPE     C217     CTL2    -0.180000       12.0110           0
     16989 MEMB     146      SAPE     H17R     HAL2     0.900000E-01   1.00800           0
     16990 MEMB     146      SAPE     H17S     HAL2     0.900000E-01   1.00800           0
     16991 MEMB     146      SAPE     C218     CTL2    -0.180000       12.0110           0
     16992 MEMB     146      SAPE     H18R     HAL2     0.900000E-01   1.00800           0
     16993 MEMB     146      SAPE     H18S     HAL2     0.900000E-01   1.00800           0
     16994 MEMB     146      SAPE     C219     CTL2    -0.180000       12.0110           0
     16995 MEMB     146      SAPE     H19R     HAL2     0.900000E-01   1.00800           0
     16996 MEMB     146      SAPE     H19S     HAL2     0.900000E-01   1.00800           0
     16997 MEMB     146      SAPE     C220     CTL3    -0.270000       12.0110           0
     16998 MEMB     146      SAPE     H20R     HAL3     0.900000E-01   1.00800           0
     16999 MEMB     146      SAPE     H20S     HAL3     0.900000E-01   1.00800           0
     17000 MEMB     146      SAPE     H20T     HAL3     0.900000E-01   1.00800           0
     17001 MEMB     146      SAPE     C33      CTL2    -0.180000       12.0110           0
     17002 MEMB     146      SAPE     H3X      HAL2     0.900000E-01   1.00800           0
     17003 MEMB     146      SAPE     H3Y      HAL2     0.900000E-01   1.00800           0
     17004 MEMB     146      SAPE     C34      CTL2    -0.180000       12.0110           0
     17005 MEMB     146      SAPE     H4X      HAL2     0.900000E-01   1.00800           0
     17006 MEMB     146      SAPE     H4Y      HAL2     0.900000E-01   1.00800           0
     17007 MEMB     146      SAPE     C35      CTL2    -0.180000       12.0110           0
     17008 MEMB     146      SAPE     H5X      HAL2     0.900000E-01   1.00800           0
     17009 MEMB     146      SAPE     H5Y      HAL2     0.900000E-01   1.00800           0
     17010 MEMB     146      SAPE     C36      CTL2    -0.180000       12.0110           0
     17011 MEMB     146      SAPE     H6X      HAL2     0.900000E-01   1.00800           0
     17012 MEMB     146      SAPE     H6Y      HAL2     0.900000E-01   1.00800           0
     17013 MEMB     146      SAPE     C37      CTL2    -0.180000       12.0110           0
     17014 MEMB     146      SAPE     H7X      HAL2     0.900000E-01   1.00800           0
     17015 MEMB     146      SAPE     H7Y      HAL2     0.900000E-01   1.00800           0
     17016 MEMB     146      SAPE     C38      CTL2    -0.180000       12.0110           0
     17017 MEMB     146      SAPE     H8X      HAL2     0.900000E-01   1.00800           0
     17018 MEMB     146      SAPE     H8Y      HAL2     0.900000E-01   1.00800           0
     17019 MEMB     146      SAPE     C39      CTL2    -0.180000       12.0110           0
     17020 MEMB     146      SAPE     H9X      HAL2     0.900000E-01   1.00800           0
     17021 MEMB     146      SAPE     H9Y      HAL2     0.900000E-01   1.00800           0
     17022 MEMB     146      SAPE     C310     CTL2    -0.180000       12.0110           0
     17023 MEMB     146      SAPE     H10X     HAL2     0.900000E-01   1.00800           0
     17024 MEMB     146      SAPE     H10Y     HAL2     0.900000E-01   1.00800           0
     17025 MEMB     146      SAPE     C311     CTL2    -0.180000       12.0110           0
     17026 MEMB     146      SAPE     H11X     HAL2     0.900000E-01   1.00800           0
     17027 MEMB     146      SAPE     H11Y     HAL2     0.900000E-01   1.00800           0
     17028 MEMB     146      SAPE     C312     CTL2    -0.180000       12.0110           0
     17029 MEMB     146      SAPE     H12X     HAL2     0.900000E-01   1.00800           0
     17030 MEMB     146      SAPE     H12Y     HAL2     0.900000E-01   1.00800           0
     17031 MEMB     146      SAPE     C313     CTL2    -0.180000       12.0110           0
     17032 MEMB     146      SAPE     H13X     HAL2     0.900000E-01   1.00800           0
     17033 MEMB     146      SAPE     H13Y     HAL2     0.900000E-01   1.00800           0
     17034 MEMB     146      SAPE     C314     CTL2    -0.180000       12.0110           0
     17035 MEMB     146      SAPE     H14X     HAL2     0.900000E-01   1.00800           0
     17036 MEMB     146      SAPE     H14Y     HAL2     0.900000E-01   1.00800           0
     17037 MEMB     146      SAPE     C315     CTL2    -0.180000       12.0110           0
     17038 MEMB     146      SAPE     H15X     HAL2     0.900000E-01   1.00800           0
     17039 MEMB     146      SAPE     H15Y     HAL2     0.900000E-01   1.00800           0
     17040 MEMB     146      SAPE     C316     CTL2    -0.180000       12.0110           0
     17041 MEMB     146      SAPE     H16X     HAL2     0.900000E-01   1.00800           0
     17042 MEMB     146      SAPE     H16Y     HAL2     0.900000E-01   1.00800           0
     17043 MEMB     146      SAPE     C317     CTL2    -0.180000       12.0110           0
     17044 MEMB     146      SAPE     H17X     HAL2     0.900000E-01   1.00800           0
     17045 MEMB     146      SAPE     H17Y     HAL2     0.900000E-01   1.00800           0
     17046 MEMB     146      SAPE     C318     CTL3    -0.270000       12.0110           0
     17047 MEMB     146      SAPE     H18X     HAL3     0.900000E-01   1.00800           0
     17048 MEMB     146      SAPE     H18Y     HAL3     0.900000E-01   1.00800           0
     17049 MEMB     146      SAPE     H18Z     HAL3     0.900000E-01   1.00800           0
     17050 MEMB     147      SAPE     N        NH3L    -0.300000       14.0070           0
     17051 MEMB     147      SAPE     HN1      HCL      0.330000       1.00800           0
     17052 MEMB     147      SAPE     HN2      HCL      0.330000       1.00800           0
     17053 MEMB     147      SAPE     HN3      HCL      0.330000       1.00800           0
     17054 MEMB     147      SAPE     C12      CTL2     0.130000       12.0110           0
     17055 MEMB     147      SAPE     H12A     HAL2     0.900000E-01   1.00800           0
     17056 MEMB     147      SAPE     H12B     HAL2     0.900000E-01   1.00800           0
     17057 MEMB     147      SAPE     C11      CTL2    -0.800000E-01   12.0110           0
     17058 MEMB     147      SAPE     H11A     HAL2     0.900000E-01   1.00800           0
     17059 MEMB     147      SAPE     H11B     HAL2     0.900000E-01   1.00800           0
     17060 MEMB     147      SAPE     P        PL        1.50000       30.9740           0
     17061 MEMB     147      SAPE     O13      O2L     -0.780000       15.9994           0
     17062 MEMB     147      SAPE     O14      O2L     -0.780000       15.9994           0
     17063 MEMB     147      SAPE     O12      OSLP    -0.570000       15.9994           0
     17064 MEMB     147      SAPE     O11      OSLP    -0.570000       15.9994           0
     17065 MEMB     147      SAPE     C1       CTL2    -0.800000E-01   12.0110           0
     17066 MEMB     147      SAPE     HA       HAL2     0.900000E-01   1.00800           0
     17067 MEMB     147      SAPE     HB       HAL2     0.900000E-01   1.00800           0
     17068 MEMB     147      SAPE     C2       CTL1     0.170000       12.0110           0
     17069 MEMB     147      SAPE     HS       HAL1     0.900000E-01   1.00800           0
     17070 MEMB     147      SAPE     O21      OSL     -0.490000       15.9994           0
     17071 MEMB     147      SAPE     C21      CL       0.900000       12.0110           0
     17072 MEMB     147      SAPE     O22      OBL     -0.630000       15.9994           0
     17073 MEMB     147      SAPE     C22      CTL2    -0.220000       12.0110           0
     17074 MEMB     147      SAPE     H2R      HAL2     0.900000E-01   1.00800           0
     17075 MEMB     147      SAPE     H2S      HAL2     0.900000E-01   1.00800           0
     17076 MEMB     147      SAPE     C3       CTL2     0.800000E-01   12.0110           0
     17077 MEMB     147      SAPE     HX       HAL2     0.900000E-01   1.00800           0
     17078 MEMB     147      SAPE     HY       HAL2     0.900000E-01   1.00800           0
     17079 MEMB     147      SAPE     O31      OSL     -0.490000       15.9994           0
     17080 MEMB     147      SAPE     C31      CL       0.900000       12.0110           0
     17081 MEMB     147      SAPE     O32      OBL     -0.630000       15.9994           0
     17082 MEMB     147      SAPE     C32      CTL2    -0.220000       12.0110           0
     17083 MEMB     147      SAPE     H2X      HAL2     0.900000E-01   1.00800           0
     17084 MEMB     147      SAPE     H2Y      HAL2     0.900000E-01   1.00800           0
     17085 MEMB     147      SAPE     C23      CTL2    -0.180000       12.0110           0
     17086 MEMB     147      SAPE     H3R      HAL2     0.900000E-01   1.00800           0
     17087 MEMB     147      SAPE     H3S      HAL2     0.900000E-01   1.00800           0
     17088 MEMB     147      SAPE     C24      CTL2    -0.180000       12.0110           0
     17089 MEMB     147      SAPE     H4R      HAL2     0.900000E-01   1.00800           0
     17090 MEMB     147      SAPE     H4S      HAL2     0.900000E-01   1.00800           0
     17091 MEMB     147      SAPE     C25      CEL1    -0.150000       12.0110           0
     17092 MEMB     147      SAPE     H5R      HEL1     0.150000       1.00800           0
     17093 MEMB     147      SAPE     C26      CEL1    -0.150000       12.0110           0
     17094 MEMB     147      SAPE     H6R      HEL1     0.150000       1.00800           0
     17095 MEMB     147      SAPE     C27      CTL2    -0.180000       12.0110           0
     17096 MEMB     147      SAPE     H7R      HAL2     0.900000E-01   1.00800           0
     17097 MEMB     147      SAPE     H7S      HAL2     0.900000E-01   1.00800           0
     17098 MEMB     147      SAPE     C28      CEL1    -0.150000       12.0110           0
     17099 MEMB     147      SAPE     H8R      HEL1     0.150000       1.00800           0
     17100 MEMB     147      SAPE     C29      CEL1    -0.150000       12.0110           0
     17101 MEMB     147      SAPE     H9R      HEL1     0.150000       1.00800           0
     17102 MEMB     147      SAPE     C210     CTL2    -0.180000       12.0110           0
     17103 MEMB     147      SAPE     H10R     HAL2     0.900000E-01   1.00800           0
     17104 MEMB     147      SAPE     H10S     HAL2     0.900000E-01   1.00800           0
     17105 MEMB     147      SAPE     C211     CEL1    -0.150000       12.0110           0
     17106 MEMB     147      SAPE     H11R     HEL1     0.150000       1.00800           0
     17107 MEMB     147      SAPE     C212     CEL1    -0.150000       12.0110           0
     17108 MEMB     147      SAPE     H12R     HEL1     0.150000       1.00800           0
     17109 MEMB     147      SAPE     C213     CTL2    -0.180000       12.0110           0
     17110 MEMB     147      SAPE     H13R     HAL2     0.900000E-01   1.00800           0
     17111 MEMB     147      SAPE     H13S     HAL2     0.900000E-01   1.00800           0
     17112 MEMB     147      SAPE     C214     CEL1    -0.150000       12.0110           0
     17113 MEMB     147      SAPE     H14R     HEL1     0.150000       1.00800           0
     17114 MEMB     147      SAPE     C215     CEL1    -0.150000       12.0110           0
     17115 MEMB     147      SAPE     H15R     HEL1     0.150000       1.00800           0
     17116 MEMB     147      SAPE     C216     CTL2    -0.180000       12.0110           0
     17117 MEMB     147      SAPE     H16R     HAL2     0.900000E-01   1.00800           0
     17118 MEMB     147      SAPE     H16S     HAL2     0.900000E-01   1.00800           0
     17119 MEMB     147      SAPE     C217     CTL2    -0.180000       12.0110           0
     17120 MEMB     147      SAPE     H17R     HAL2     0.900000E-01   1.00800           0
     17121 MEMB     147      SAPE     H17S     HAL2     0.900000E-01   1.00800           0
     17122 MEMB     147      SAPE     C218     CTL2    -0.180000       12.0110           0
     17123 MEMB     147      SAPE     H18R     HAL2     0.900000E-01   1.00800           0
     17124 MEMB     147      SAPE     H18S     HAL2     0.900000E-01   1.00800           0
     17125 MEMB     147      SAPE     C219     CTL2    -0.180000       12.0110           0
     17126 MEMB     147      SAPE     H19R     HAL2     0.900000E-01   1.00800           0
     17127 MEMB     147      SAPE     H19S     HAL2     0.900000E-01   1.00800           0
     17128 MEMB     147      SAPE     C220     CTL3    -0.270000       12.0110           0
     17129 MEMB     147      SAPE     H20R     HAL3     0.900000E-01   1.00800           0
     17130 MEMB     147      SAPE     H20S     HAL3     0.900000E-01   1.00800           0
     17131 MEMB     147      SAPE     H20T     HAL3     0.900000E-01   1.00800           0
     17132 MEMB     147      SAPE     C33      CTL2    -0.180000       12.0110           0
     17133 MEMB     147      SAPE     H3X      HAL2     0.900000E-01   1.00800           0
     17134 MEMB     147      SAPE     H3Y      HAL2     0.900000E-01   1.00800           0
     17135 MEMB     147      SAPE     C34      CTL2    -0.180000       12.0110           0
     17136 MEMB     147      SAPE     H4X      HAL2     0.900000E-01   1.00800           0
     17137 MEMB     147      SAPE     H4Y      HAL2     0.900000E-01   1.00800           0
     17138 MEMB     147      SAPE     C35      CTL2    -0.180000       12.0110           0
     17139 MEMB     147      SAPE     H5X      HAL2     0.900000E-01   1.00800           0
     17140 MEMB     147      SAPE     H5Y      HAL2     0.900000E-01   1.00800           0
     17141 MEMB     147      SAPE     C36      CTL2    -0.180000       12.0110           0
     17142 MEMB     147      SAPE     H6X      HAL2     0.900000E-01   1.00800           0
     17143 MEMB     147      SAPE     H6Y      HAL2     0.900000E-01   1.00800           0
     17144 MEMB     147      SAPE     C37      CTL2    -0.180000       12.0110           0
     17145 MEMB     147      SAPE     H7X      HAL2     0.900000E-01   1.00800           0
     17146 MEMB     147      SAPE     H7Y      HAL2     0.900000E-01   1.00800           0
     17147 MEMB     147      SAPE     C38      CTL2    -0.180000       12.0110           0
     17148 MEMB     147      SAPE     H8X      HAL2     0.900000E-01   1.00800           0
     17149 MEMB     147      SAPE     H8Y      HAL2     0.900000E-01   1.00800           0
     17150 MEMB     147      SAPE     C39      CTL2    -0.180000       12.0110           0
     17151 MEMB     147      SAPE     H9X      HAL2     0.900000E-01   1.00800           0
     17152 MEMB     147      SAPE     H9Y      HAL2     0.900000E-01   1.00800           0
     17153 MEMB     147      SAPE     C310     CTL2    -0.180000       12.0110           0
     17154 MEMB     147      SAPE     H10X     HAL2     0.900000E-01   1.00800           0
     17155 MEMB     147      SAPE     H10Y     HAL2     0.900000E-01   1.00800           0
     17156 MEMB     147      SAPE     C311     CTL2    -0.180000       12.0110           0
     17157 MEMB     147      SAPE     H11X     HAL2     0.900000E-01   1.00800           0
     17158 MEMB     147      SAPE     H11Y     HAL2     0.900000E-01   1.00800           0
     17159 MEMB     147      SAPE     C312     CTL2    -0.180000       12.0110           0
     17160 MEMB     147      SAPE     H12X     HAL2     0.900000E-01   1.00800           0
     17161 MEMB     147      SAPE     H12Y     HAL2     0.900000E-01   1.00800           0
     17162 MEMB     147      SAPE     C313     CTL2    -0.180000       12.0110           0
     17163 MEMB     147      SAPE     H13X     HAL2     0.900000E-01   1.00800           0
     17164 MEMB     147      SAPE     H13Y     HAL2     0.900000E-01   1.00800           0
     17165 MEMB     147      SAPE     C314     CTL2    -0.180000       12.0110           0
     17166 MEMB     147      SAPE     H14X     HAL2     0.900000E-01   1.00800           0
     17167 MEMB     147      SAPE     H14Y     HAL2     0.900000E-01   1.00800           0
     17168 MEMB     147      SAPE     C315     CTL2    -0.180000       12.0110           0
     17169 MEMB     147      SAPE     H15X     HAL2     0.900000E-01   1.00800           0
     17170 MEMB     147      SAPE     H15Y     HAL2     0.900000E-01   1.00800           0
     17171 MEMB     147      SAPE     C316     CTL2    -0.180000       12.0110           0
     17172 MEMB     147      SAPE     H16X     HAL2     0.900000E-01   1.00800           0
     17173 MEMB     147      SAPE     H16Y     HAL2     0.900000E-01   1.00800           0
     17174 MEMB     147      SAPE     C317     CTL2    -0.180000       12.0110           0
     17175 MEMB     147      SAPE     H17X     HAL2     0.900000E-01   1.00800           0
     17176 MEMB     147      SAPE     H17Y     HAL2     0.900000E-01   1.00800           0
     17177 MEMB     147      SAPE     C318     CTL3    -0.270000       12.0110           0
     17178 MEMB     147      SAPE     H18X     HAL3     0.900000E-01   1.00800           0
     17179 MEMB     147      SAPE     H18Y     HAL3     0.900000E-01   1.00800           0
     17180 MEMB     147      SAPE     H18Z     HAL3     0.900000E-01   1.00800           0
     17181 MEMB     148      SOPE     N        NH3L    -0.300000       14.0070           0
     17182 MEMB     148      SOPE     HN1      HCL      0.330000       1.00800           0
     17183 MEMB     148      SOPE     HN2      HCL      0.330000       1.00800           0
     17184 MEMB     148      SOPE     HN3      HCL      0.330000       1.00800           0
     17185 MEMB     148      SOPE     C12      CTL2     0.130000       12.0110           0
     17186 MEMB     148      SOPE     H12A     HAL2     0.900000E-01   1.00800           0
     17187 MEMB     148      SOPE     H12B     HAL2     0.900000E-01   1.00800           0
     17188 MEMB     148      SOPE     C11      CTL2    -0.800000E-01   12.0110           0
     17189 MEMB     148      SOPE     H11A     HAL2     0.900000E-01   1.00800           0
     17190 MEMB     148      SOPE     H11B     HAL2     0.900000E-01   1.00800           0
     17191 MEMB     148      SOPE     P        PL        1.50000       30.9740           0
     17192 MEMB     148      SOPE     O13      O2L     -0.780000       15.9994           0
     17193 MEMB     148      SOPE     O14      O2L     -0.780000       15.9994           0
     17194 MEMB     148      SOPE     O12      OSLP    -0.570000       15.9994           0
     17195 MEMB     148      SOPE     O11      OSLP    -0.570000       15.9994           0
     17196 MEMB     148      SOPE     C1       CTL2    -0.800000E-01   12.0110           0
     17197 MEMB     148      SOPE     HA       HAL2     0.900000E-01   1.00800           0
     17198 MEMB     148      SOPE     HB       HAL2     0.900000E-01   1.00800           0
     17199 MEMB     148      SOPE     C2       CTL1     0.170000       12.0110           0
     17200 MEMB     148      SOPE     HS       HAL1     0.900000E-01   1.00800           0
     17201 MEMB     148      SOPE     O21      OSL     -0.490000       15.9994           0
     17202 MEMB     148      SOPE     C21      CL       0.900000       12.0110           0
     17203 MEMB     148      SOPE     O22      OBL     -0.630000       15.9994           0
     17204 MEMB     148      SOPE     C22      CTL2    -0.220000       12.0110           0
     17205 MEMB     148      SOPE     H2R      HAL2     0.900000E-01   1.00800           0
     17206 MEMB     148      SOPE     H2S      HAL2     0.900000E-01   1.00800           0
     17207 MEMB     148      SOPE     C3       CTL2     0.800000E-01   12.0110           0
     17208 MEMB     148      SOPE     HX       HAL2     0.900000E-01   1.00800           0
     17209 MEMB     148      SOPE     HY       HAL2     0.900000E-01   1.00800           0
     17210 MEMB     148      SOPE     O31      OSL     -0.490000       15.9994           0
     17211 MEMB     148      SOPE     C31      CL       0.900000       12.0110           0
     17212 MEMB     148      SOPE     O32      OBL     -0.630000       15.9994           0
     17213 MEMB     148      SOPE     C32      CTL2    -0.220000       12.0110           0
     17214 MEMB     148      SOPE     H2X      HAL2     0.900000E-01   1.00800           0
     17215 MEMB     148      SOPE     H2Y      HAL2     0.900000E-01   1.00800           0
     17216 MEMB     148      SOPE     C23      CTL2    -0.180000       12.0110           0
     17217 MEMB     148      SOPE     H3R      HAL2     0.900000E-01   1.00800           0
     17218 MEMB     148      SOPE     H3S      HAL2     0.900000E-01   1.00800           0
     17219 MEMB     148      SOPE     C24      CTL2    -0.180000       12.0110           0
     17220 MEMB     148      SOPE     H4R      HAL2     0.900000E-01   1.00800           0
     17221 MEMB     148      SOPE     H4S      HAL2     0.900000E-01   1.00800           0
     17222 MEMB     148      SOPE     C25      CTL2    -0.180000       12.0110           0
     17223 MEMB     148      SOPE     H5R      HAL2     0.900000E-01   1.00800           0
     17224 MEMB     148      SOPE     H5S      HAL2     0.900000E-01   1.00800           0
     17225 MEMB     148      SOPE     C26      CTL2    -0.180000       12.0110           0
     17226 MEMB     148      SOPE     H6R      HAL2     0.900000E-01   1.00800           0
     17227 MEMB     148      SOPE     H6S      HAL2     0.900000E-01   1.00800           0
     17228 MEMB     148      SOPE     C27      CTL2    -0.180000       12.0110           0
     17229 MEMB     148      SOPE     H7R      HAL2     0.900000E-01   1.00800           0
     17230 MEMB     148      SOPE     H7S      HAL2     0.900000E-01   1.00800           0
     17231 MEMB     148      SOPE     C28      CTL2    -0.180000       12.0110           0
     17232 MEMB     148      SOPE     H8R      HAL2     0.900000E-01   1.00800           0
     17233 MEMB     148      SOPE     H8S      HAL2     0.900000E-01   1.00800           0
     17234 MEMB     148      SOPE     C29      CEL1    -0.150000       12.0110           0
     17235 MEMB     148      SOPE     H91      HEL1     0.150000       1.00800           0
     17236 MEMB     148      SOPE     C210     CEL1    -0.150000       12.0110           0
     17237 MEMB     148      SOPE     H101     HEL1     0.150000       1.00800           0
     17238 MEMB     148      SOPE     C211     CTL2    -0.180000       12.0110           0
     17239 MEMB     148      SOPE     H11R     HAL2     0.900000E-01   1.00800           0
     17240 MEMB     148      SOPE     H11S     HAL2     0.900000E-01   1.00800           0
     17241 MEMB     148      SOPE     C212     CTL2    -0.180000       12.0110           0
     17242 MEMB     148      SOPE     H12R     HAL2     0.900000E-01   1.00800           0
     17243 MEMB     148      SOPE     H12S     HAL2     0.900000E-01   1.00800           0
     17244 MEMB     148      SOPE     C213     CTL2    -0.180000       12.0110           0
     17245 MEMB     148      SOPE     H13R     HAL2     0.900000E-01   1.00800           0
     17246 MEMB     148      SOPE     H13S     HAL2     0.900000E-01   1.00800           0
     17247 MEMB     148      SOPE     C214     CTL2    -0.180000       12.0110           0
     17248 MEMB     148      SOPE     H14R     HAL2     0.900000E-01   1.00800           0
     17249 MEMB     148      SOPE     H14S     HAL2     0.900000E-01   1.00800           0
     17250 MEMB     148      SOPE     C215     CTL2    -0.180000       12.0110           0
     17251 MEMB     148      SOPE     H15R     HAL2     0.900000E-01   1.00800           0
     17252 MEMB     148      SOPE     H15S     HAL2     0.900000E-01   1.00800           0
     17253 MEMB     148      SOPE     C216     CTL2    -0.180000       12.0110           0
     17254 MEMB     148      SOPE     H16R     HAL2     0.900000E-01   1.00800           0
     17255 MEMB     148      SOPE     H16S     HAL2     0.900000E-01   1.00800           0
     17256 MEMB     148      SOPE     C217     CTL2    -0.180000       12.0110           0
     17257 MEMB     148      SOPE     H17R     HAL2     0.900000E-01   1.00800           0
     17258 MEMB     148      SOPE     H17S     HAL2     0.900000E-01   1.00800           0
     17259 MEMB     148      SOPE     C218     CTL3    -0.270000       12.0110           0
     17260 MEMB     148      SOPE     H18R     HAL3     0.900000E-01   1.00800           0
     17261 MEMB     148      SOPE     H18S     HAL3     0.900000E-01   1.00800           0
     17262 MEMB     148      SOPE     H18T     HAL3     0.900000E-01   1.00800           0
     17263 MEMB     148      SOPE     C33      CTL2    -0.180000       12.0110           0
     17264 MEMB     148      SOPE     H3X      HAL2     0.900000E-01   1.00800           0
     17265 MEMB     148      SOPE     H3Y      HAL2     0.900000E-01   1.00800           0
     17266 MEMB     148      SOPE     C34      CTL2    -0.180000       12.0110           0
     17267 MEMB     148      SOPE     H4X      HAL2     0.900000E-01   1.00800           0
     17268 MEMB     148      SOPE     H4Y      HAL2     0.900000E-01   1.00800           0
     17269 MEMB     148      SOPE     C35      CTL2    -0.180000       12.0110           0
     17270 MEMB     148      SOPE     H5X      HAL2     0.900000E-01   1.00800           0
     17271 MEMB     148      SOPE     H5Y      HAL2     0.900000E-01   1.00800           0
     17272 MEMB     148      SOPE     C36      CTL2    -0.180000       12.0110           0
     17273 MEMB     148      SOPE     H6X      HAL2     0.900000E-01   1.00800           0
     17274 MEMB     148      SOPE     H6Y      HAL2     0.900000E-01   1.00800           0
     17275 MEMB     148      SOPE     C37      CTL2    -0.180000       12.0110           0
     17276 MEMB     148      SOPE     H7X      HAL2     0.900000E-01   1.00800           0
     17277 MEMB     148      SOPE     H7Y      HAL2     0.900000E-01   1.00800           0
     17278 MEMB     148      SOPE     C38      CTL2    -0.180000       12.0110           0
     17279 MEMB     148      SOPE     H8X      HAL2     0.900000E-01   1.00800           0
     17280 MEMB     148      SOPE     H8Y      HAL2     0.900000E-01   1.00800           0
     17281 MEMB     148      SOPE     C39      CTL2    -0.180000       12.0110           0
     17282 MEMB     148      SOPE     H9X      HAL2     0.900000E-01   1.00800           0
     17283 MEMB     148      SOPE     H9Y      HAL2     0.900000E-01   1.00800           0
     17284 MEMB     148      SOPE     C310     CTL2    -0.180000       12.0110           0
     17285 MEMB     148      SOPE     H10X     HAL2     0.900000E-01   1.00800           0
     17286 MEMB     148      SOPE     H10Y     HAL2     0.900000E-01   1.00800           0
     17287 MEMB     148      SOPE     C311     CTL2    -0.180000       12.0110           0
     17288 MEMB     148      SOPE     H11X     HAL2     0.900000E-01   1.00800           0
     17289 MEMB     148      SOPE     H11Y     HAL2     0.900000E-01   1.00800           0
     17290 MEMB     148      SOPE     C312     CTL2    -0.180000       12.0110           0
     17291 MEMB     148      SOPE     H12X     HAL2     0.900000E-01   1.00800           0
     17292 MEMB     148      SOPE     H12Y     HAL2     0.900000E-01   1.00800           0
     17293 MEMB     148      SOPE     C313     CTL2    -0.180000       12.0110           0
     17294 MEMB     148      SOPE     H13X     HAL2     0.900000E-01   1.00800           0
     17295 MEMB     148      SOPE     H13Y     HAL2     0.900000E-01   1.00800           0
     17296 MEMB     148      SOPE     C314     CTL2    -0.180000       12.0110           0
     17297 MEMB     148      SOPE     H14X     HAL2     0.900000E-01   1.00800           0
     17298 MEMB     148      SOPE     H14Y     HAL2     0.900000E-01   1.00800           0
     17299 MEMB     148      SOPE     C315     CTL2    -0.180000       12.0110           0
     17300 MEMB     148      SOPE     H15X     HAL2     0.900000E-01   1.00800           0
     17301 MEMB     148      SOPE     H15Y     HAL2     0.900000E-01   1.00800           0
     17302 MEMB     148      SOPE     C316     CTL2    -0.180000       12.0110           0
     17303 MEMB     148      SOPE     H16X     HAL2     0.900000E-01   1.00800           0
     17304 MEMB     148      SOPE     H16Y     HAL2     0.900000E-01   1.00800           0
     17305 MEMB     148      SOPE     C317     CTL2    -0.180000       12.0110           0
     17306 MEMB     148      SOPE     H17X     HAL2     0.900000E-01   1.00800           0
     17307 MEMB     148      SOPE     H17Y     HAL2     0.900000E-01   1.00800           0
     17308 MEMB     148      SOPE     C318     CTL3    -0.270000       12.0110           0
     17309 MEMB     148      SOPE     H18X     HAL3     0.900000E-01   1.00800           0
     17310 MEMB     148      SOPE     H18Y     HAL3     0.900000E-01   1.00800           0
     17311 MEMB     148      SOPE     H18Z     HAL3     0.900000E-01   1.00800           0
     17312 MEMB     149      SAPI     C12      CC3161   0.140000       12.0110           0
     17313 MEMB     149      SAPI     H2       HCA1     0.900000E-01   1.00800           0
     17314 MEMB     149      SAPI     O2       OC311   -0.650000       15.9994           0
     17315 MEMB     149      SAPI     HO2      HCP1     0.420000       1.00800           0
     17316 MEMB     149      SAPI     C13      CC3161   0.140000       12.0110           0
     17317 MEMB     149      SAPI     H3       HCA1     0.900000E-01   1.00800           0
     17318 MEMB     149      SAPI     O3       OC311   -0.650000       15.9994           0
     17319 MEMB     149      SAPI     HO3      HCP1     0.420000       1.00800           0
     17320 MEMB     149      SAPI     C14      CC3161   0.140000       12.0110           0
     17321 MEMB     149      SAPI     H4       HCA1     0.900000E-01   1.00800           0
     17322 MEMB     149      SAPI     O4       OC311   -0.650000       15.9994           0
     17323 MEMB     149      SAPI     HO4      HCP1     0.420000       1.00800           0
     17324 MEMB     149      SAPI     C15      CC3161   0.140000       12.0110           0
     17325 MEMB     149      SAPI     H5       HCA1     0.900000E-01   1.00800           0
     17326 MEMB     149      SAPI     O5       OC311   -0.650000       15.9994           0
     17327 MEMB     149      SAPI     HO5      HCP1     0.420000       1.00800           0
     17328 MEMB     149      SAPI     C16      CC3161   0.140000       12.0110           0
     17329 MEMB     149      SAPI     H6       HCA1     0.900000E-01   1.00800           0
     17330 MEMB     149      SAPI     O6       OC311   -0.650000       15.9994           0
     17331 MEMB     149      SAPI     HO6      HCP1     0.420000       1.00800           0
     17332 MEMB     149      SAPI     C11      CC3161  -0.800000E-01   12.0110           0
     17333 MEMB     149      SAPI     H1       HCA1     0.900000E-01   1.00800           0
     17334 MEMB     149      SAPI     P        PL        1.59000       30.9740           0
     17335 MEMB     149      SAPI     O13      O2L     -0.780000       15.9994           0
     17336 MEMB     149      SAPI     O14      O2L     -0.780000       15.9994           0
     17337 MEMB     149      SAPI     O12      OC30P   -0.570000       15.9994           0
     17338 MEMB     149      SAPI     O11      OSLP    -0.570000       15.9994           0
     17339 MEMB     149      SAPI     C1       CTL2    -0.800000E-01   12.0110           0
     17340 MEMB     149      SAPI     HA       HAL2     0.900000E-01   1.00800           0
     17341 MEMB     149      SAPI     HB       HAL2     0.900000E-01   1.00800           0
     17342 MEMB     149      SAPI     C2       CTL1     0.170000       12.0110           0
     17343 MEMB     149      SAPI     HS       HAL1     0.900000E-01   1.00800           0
     17344 MEMB     149      SAPI     O21      OSL     -0.490000       15.9994           0
     17345 MEMB     149      SAPI     C21      CL       0.900000       12.0110           0
     17346 MEMB     149      SAPI     O22      OBL     -0.630000       15.9994           0
     17347 MEMB     149      SAPI     C22      CTL2    -0.220000       12.0110           0
     17348 MEMB     149      SAPI     H2R      HAL2     0.900000E-01   1.00800           0
     17349 MEMB     149      SAPI     H2S      HAL2     0.900000E-01   1.00800           0
     17350 MEMB     149      SAPI     C3       CTL2     0.800000E-01   12.0110           0
     17351 MEMB     149      SAPI     HX       HAL2     0.900000E-01   1.00800           0
     17352 MEMB     149      SAPI     HY       HAL2     0.900000E-01   1.00800           0
     17353 MEMB     149      SAPI     O31      OSL     -0.490000       15.9994           0
     17354 MEMB     149      SAPI     C31      CL       0.900000       12.0110           0
     17355 MEMB     149      SAPI     O32      OBL     -0.630000       15.9994           0
     17356 MEMB     149      SAPI     C32      CTL2    -0.220000       12.0110           0
     17357 MEMB     149      SAPI     H2X      HAL2     0.900000E-01   1.00800           0
     17358 MEMB     149      SAPI     H2Y      HAL2     0.900000E-01   1.00800           0
     17359 MEMB     149      SAPI     C23      CTL2    -0.180000       12.0110           0
     17360 MEMB     149      SAPI     H3R      HAL2     0.900000E-01   1.00800           0
     17361 MEMB     149      SAPI     H3S      HAL2     0.900000E-01   1.00800           0
     17362 MEMB     149      SAPI     C24      CTL2    -0.180000       12.0110           0
     17363 MEMB     149      SAPI     H4R      HAL2     0.900000E-01   1.00800           0
     17364 MEMB     149      SAPI     H4S      HAL2     0.900000E-01   1.00800           0
     17365 MEMB     149      SAPI     C25      CEL1    -0.150000       12.0110           0
     17366 MEMB     149      SAPI     H5R      HEL1     0.150000       1.00800           0
     17367 MEMB     149      SAPI     C26      CEL1    -0.150000       12.0110           0
     17368 MEMB     149      SAPI     H6R      HEL1     0.150000       1.00800           0
     17369 MEMB     149      SAPI     C27      CTL2    -0.180000       12.0110           0
     17370 MEMB     149      SAPI     H7R      HAL2     0.900000E-01   1.00800           0
     17371 MEMB     149      SAPI     H7S      HAL2     0.900000E-01   1.00800           0
     17372 MEMB     149      SAPI     C28      CEL1    -0.150000       12.0110           0
     17373 MEMB     149      SAPI     H8R      HEL1     0.150000       1.00800           0
     17374 MEMB     149      SAPI     C29      CEL1    -0.150000       12.0110           0
     17375 MEMB     149      SAPI     H9R      HEL1     0.150000       1.00800           0
     17376 MEMB     149      SAPI     C210     CTL2    -0.180000       12.0110           0
     17377 MEMB     149      SAPI     H10R     HAL2     0.900000E-01   1.00800           0
     17378 MEMB     149      SAPI     H10S     HAL2     0.900000E-01   1.00800           0
     17379 MEMB     149      SAPI     C211     CEL1    -0.150000       12.0110           0
     17380 MEMB     149      SAPI     H11R     HEL1     0.150000       1.00800           0
     17381 MEMB     149      SAPI     C212     CEL1    -0.150000       12.0110           0
     17382 MEMB     149      SAPI     H12R     HEL1     0.150000       1.00800           0
     17383 MEMB     149      SAPI     C213     CTL2    -0.180000       12.0110           0
     17384 MEMB     149      SAPI     H13R     HAL2     0.900000E-01   1.00800           0
     17385 MEMB     149      SAPI     H13S     HAL2     0.900000E-01   1.00800           0
     17386 MEMB     149      SAPI     C214     CEL1    -0.150000       12.0110           0
     17387 MEMB     149      SAPI     H14R     HEL1     0.150000       1.00800           0
     17388 MEMB     149      SAPI     C215     CEL1    -0.150000       12.0110           0
     17389 MEMB     149      SAPI     H15R     HEL1     0.150000       1.00800           0
     17390 MEMB     149      SAPI     C216     CTL2    -0.180000       12.0110           0
     17391 MEMB     149      SAPI     H16R     HAL2     0.900000E-01   1.00800           0
     17392 MEMB     149      SAPI     H16S     HAL2     0.900000E-01   1.00800           0
     17393 MEMB     149      SAPI     C217     CTL2    -0.180000       12.0110           0
     17394 MEMB     149      SAPI     H17R     HAL2     0.900000E-01   1.00800           0
     17395 MEMB     149      SAPI     H17S     HAL2     0.900000E-01   1.00800           0
     17396 MEMB     149      SAPI     C218     CTL2    -0.180000       12.0110           0
     17397 MEMB     149      SAPI     H18R     HAL2     0.900000E-01   1.00800           0
     17398 MEMB     149      SAPI     H18S     HAL2     0.900000E-01   1.00800           0
     17399 MEMB     149      SAPI     C219     CTL2    -0.180000       12.0110           0
     17400 MEMB     149      SAPI     H19R     HAL2     0.900000E-01   1.00800           0
     17401 MEMB     149      SAPI     H19S     HAL2     0.900000E-01   1.00800           0
     17402 MEMB     149      SAPI     C220     CTL3    -0.270000       12.0110           0
     17403 MEMB     149      SAPI     H20R     HAL3     0.900000E-01   1.00800           0
     17404 MEMB     149      SAPI     H20S     HAL3     0.900000E-01   1.00800           0
     17405 MEMB     149      SAPI     H20T     HAL3     0.900000E-01   1.00800           0
     17406 MEMB     149      SAPI     C33      CTL2    -0.180000       12.0110           0
     17407 MEMB     149      SAPI     H3X      HAL2     0.900000E-01   1.00800           0
     17408 MEMB     149      SAPI     H3Y      HAL2     0.900000E-01   1.00800           0
     17409 MEMB     149      SAPI     C34      CTL2    -0.180000       12.0110           0
     17410 MEMB     149      SAPI     H4X      HAL2     0.900000E-01   1.00800           0
     17411 MEMB     149      SAPI     H4Y      HAL2     0.900000E-01   1.00800           0
     17412 MEMB     149      SAPI     C35      CTL2    -0.180000       12.0110           0
     17413 MEMB     149      SAPI     H5X      HAL2     0.900000E-01   1.00800           0
     17414 MEMB     149      SAPI     H5Y      HAL2     0.900000E-01   1.00800           0
     17415 MEMB     149      SAPI     C36      CTL2    -0.180000       12.0110           0
     17416 MEMB     149      SAPI     H6X      HAL2     0.900000E-01   1.00800           0
     17417 MEMB     149      SAPI     H6Y      HAL2     0.900000E-01   1.00800           0
     17418 MEMB     149      SAPI     C37      CTL2    -0.180000       12.0110           0
     17419 MEMB     149      SAPI     H7X      HAL2     0.900000E-01   1.00800           0
     17420 MEMB     149      SAPI     H7Y      HAL2     0.900000E-01   1.00800           0
     17421 MEMB     149      SAPI     C38      CTL2    -0.180000       12.0110           0
     17422 MEMB     149      SAPI     H8X      HAL2     0.900000E-01   1.00800           0
     17423 MEMB     149      SAPI     H8Y      HAL2     0.900000E-01   1.00800           0
     17424 MEMB     149      SAPI     C39      CTL2    -0.180000       12.0110           0
     17425 MEMB     149      SAPI     H9X      HAL2     0.900000E-01   1.00800           0
     17426 MEMB     149      SAPI     H9Y      HAL2     0.900000E-01   1.00800           0
     17427 MEMB     149      SAPI     C310     CTL2    -0.180000       12.0110           0
     17428 MEMB     149      SAPI     H10X     HAL2     0.900000E-01   1.00800           0
     17429 MEMB     149      SAPI     H10Y     HAL2     0.900000E-01   1.00800           0
     17430 MEMB     149      SAPI     C311     CTL2    -0.180000       12.0110           0
     17431 MEMB     149      SAPI     H11X     HAL2     0.900000E-01   1.00800           0
     17432 MEMB     149      SAPI     H11Y     HAL2     0.900000E-01   1.00800           0
     17433 MEMB     149      SAPI     C312     CTL2    -0.180000       12.0110           0
     17434 MEMB     149      SAPI     H12X     HAL2     0.900000E-01   1.00800           0
     17435 MEMB     149      SAPI     H12Y     HAL2     0.900000E-01   1.00800           0
     17436 MEMB     149      SAPI     C313     CTL2    -0.180000       12.0110           0
     17437 MEMB     149      SAPI     H13X     HAL2     0.900000E-01   1.00800           0
     17438 MEMB     149      SAPI     H13Y     HAL2     0.900000E-01   1.00800           0
     17439 MEMB     149      SAPI     C314     CTL2    -0.180000       12.0110           0
     17440 MEMB     149      SAPI     H14X     HAL2     0.900000E-01   1.00800           0
     17441 MEMB     149      SAPI     H14Y     HAL2     0.900000E-01   1.00800           0
     17442 MEMB     149      SAPI     C315     CTL2    -0.180000       12.0110           0
     17443 MEMB     149      SAPI     H15X     HAL2     0.900000E-01   1.00800           0
     17444 MEMB     149      SAPI     H15Y     HAL2     0.900000E-01   1.00800           0
     17445 MEMB     149      SAPI     C316     CTL2    -0.180000       12.0110           0
     17446 MEMB     149      SAPI     H16X     HAL2     0.900000E-01   1.00800           0
     17447 MEMB     149      SAPI     H16Y     HAL2     0.900000E-01   1.00800           0
     17448 MEMB     149      SAPI     C317     CTL2    -0.180000       12.0110           0
     17449 MEMB     149      SAPI     H17X     HAL2     0.900000E-01   1.00800           0
     17450 MEMB     149      SAPI     H17Y     HAL2     0.900000E-01   1.00800           0
     17451 MEMB     149      SAPI     C318     CTL3    -0.270000       12.0110           0
     17452 MEMB     149      SAPI     H18X     HAL3     0.900000E-01   1.00800           0
     17453 MEMB     149      SAPI     H18Y     HAL3     0.900000E-01   1.00800           0
     17454 MEMB     149      SAPI     H18Z     HAL3     0.900000E-01   1.00800           0
     17455 MEMB     150      OSM      N        NTL     -0.600000       14.0070           0
     17456 MEMB     150      OSM      C15      CTL5    -0.350000       12.0110           0
     17457 MEMB     150      OSM      H15A     HL       0.250000       1.00800           0
     17458 MEMB     150      OSM      H15B     HL       0.250000       1.00800           0
     17459 MEMB     150      OSM      H15C     HL       0.250000       1.00800           0
     17460 MEMB     150      OSM      C14      CTL5    -0.350000       12.0110           0
     17461 MEMB     150      OSM      H14A     HL       0.250000       1.00800           0
     17462 MEMB     150      OSM      H14B     HL       0.250000       1.00800           0
     17463 MEMB     150      OSM      H14C     HL       0.250000       1.00800           0
     17464 MEMB     150      OSM      C13      CTL5    -0.350000       12.0110           0
     17465 MEMB     150      OSM      H13A     HL       0.250000       1.00800           0
     17466 MEMB     150      OSM      H13B     HL       0.250000       1.00800           0
     17467 MEMB     150      OSM      H13C     HL       0.250000       1.00800           0
     17468 MEMB     150      OSM      C12      CTL2    -0.100000       12.0110           0
     17469 MEMB     150      OSM      H12A     HL       0.250000       1.00800           0
     17470 MEMB     150      OSM      H12B     HL       0.250000       1.00800           0
     17471 MEMB     150      OSM      C11      CTL2    -0.800000E-01   12.0110           0
     17472 MEMB     150      OSM      H11A     HAL2     0.900000E-01   1.00800           0
     17473 MEMB     150      OSM      H11B     HAL2     0.900000E-01   1.00800           0
     17474 MEMB     150      OSM      P        PL        1.50000       30.9740           0
     17475 MEMB     150      OSM      O13      O2L     -0.780000       15.9994           0
     17476 MEMB     150      OSM      O14      O2L     -0.780000       15.9994           0
     17477 MEMB     150      OSM      O11      OSLP    -0.570000       15.9994           0
     17478 MEMB     150      OSM      O12      OSLP    -0.570000       15.9994           0
     17479 MEMB     150      OSM      C1S      CTL2    -0.800000E-01   12.0110           0
     17480 MEMB     150      OSM      H1S      HAL2     0.900000E-01   1.00800           0
     17481 MEMB     150      OSM      H1T      HAL2     0.900000E-01   1.00800           0
     17482 MEMB     150      OSM      NF       NHL     -0.700000       14.0070           0
     17483 MEMB     150      OSM      HNF      H        0.350000       1.00800           0
     17484 MEMB     150      OSM      C2S      CTL1     0.300000       12.0110           0
     17485 MEMB     150      OSM      H2S      HAL1     0.500000E-01   1.00800           0
     17486 MEMB     150      OSM      C3S      CTO1     0.500000       12.0110           0
     17487 MEMB     150      OSM      H3S      HAL1    -0.110000       1.00800           0
     17488 MEMB     150      OSM      O3       OHL     -0.690000       15.9994           0
     17489 MEMB     150      OSM      HO3      HOL      0.300000       1.00800           0
     17490 MEMB     150      OSM      C4S      CEL3    -0.150000       12.0110           0
     17491 MEMB     150      OSM      H4S      HEL1     0.150000       1.00800           0
     17492 MEMB     150      OSM      C5S      CEL3    -0.150000       12.0110           0
     17493 MEMB     150      OSM      H5S      HEL1     0.150000       1.00800           0
     17494 MEMB     150      OSM      C6S      CTL2    -0.180000       12.0110           0
     17495 MEMB     150      OSM      H6S      HAL2     0.900000E-01   1.00800           0
     17496 MEMB     150      OSM      H6T      HAL2     0.900000E-01   1.00800           0
     17497 MEMB     150      OSM      C7S      CTL2    -0.180000       12.0110           0
     17498 MEMB     150      OSM      H7S      HAL2     0.900000E-01   1.00800           0
     17499 MEMB     150      OSM      H7T      HAL2     0.900000E-01   1.00800           0
     17500 MEMB     150      OSM      C8S      CTL2    -0.180000       12.0110           0
     17501 MEMB     150      OSM      H8S      HAL2     0.900000E-01   1.00800           0
     17502 MEMB     150      OSM      H8T      HAL2     0.900000E-01   1.00800           0
     17503 MEMB     150      OSM      C9S      CTL2    -0.180000       12.0110           0
     17504 MEMB     150      OSM      H9S      HAL2     0.900000E-01   1.00800           0
     17505 MEMB     150      OSM      H9T      HAL2     0.900000E-01   1.00800           0
     17506 MEMB     150      OSM      C10S     CTL2    -0.180000       12.0110           0
     17507 MEMB     150      OSM      H10S     HAL2     0.900000E-01   1.00800           0
     17508 MEMB     150      OSM      H10T     HAL2     0.900000E-01   1.00800           0
     17509 MEMB     150      OSM      C11S     CTL2    -0.180000       12.0110           0
     17510 MEMB     150      OSM      H11S     HAL2     0.900000E-01   1.00800           0
     17511 MEMB     150      OSM      H11T     HAL2     0.900000E-01   1.00800           0
     17512 MEMB     150      OSM      C12S     CTL2    -0.180000       12.0110           0
     17513 MEMB     150      OSM      H12S     HAL2     0.900000E-01   1.00800           0
     17514 MEMB     150      OSM      H12T     HAL2     0.900000E-01   1.00800           0
     17515 MEMB     150      OSM      C13S     CTL2    -0.180000       12.0110           0
     17516 MEMB     150      OSM      H13S     HAL2     0.900000E-01   1.00800           0
     17517 MEMB     150      OSM      H13T     HAL2     0.900000E-01   1.00800           0
     17518 MEMB     150      OSM      C14S     CTL2    -0.180000       12.0110           0
     17519 MEMB     150      OSM      H14S     HAL2     0.900000E-01   1.00800           0
     17520 MEMB     150      OSM      H14T     HAL2     0.900000E-01   1.00800           0
     17521 MEMB     150      OSM      C15S     CTL2    -0.180000       12.0110           0
     17522 MEMB     150      OSM      H15S     HAL2     0.900000E-01   1.00800           0
     17523 MEMB     150      OSM      H15T     HAL2     0.900000E-01   1.00800           0
     17524 MEMB     150      OSM      C16S     CTL2    -0.180000       12.0110           0
     17525 MEMB     150      OSM      H16S     HAL2     0.900000E-01   1.00800           0
     17526 MEMB     150      OSM      H16T     HAL2     0.900000E-01   1.00800           0
     17527 MEMB     150      OSM      C17S     CTL2    -0.180000       12.0110           0
     17528 MEMB     150      OSM      H17S     HAL2     0.900000E-01   1.00800           0
     17529 MEMB     150      OSM      H17T     HAL2     0.900000E-01   1.00800           0
     17530 MEMB     150      OSM      C18S     CTL3    -0.270000       12.0110           0
     17531 MEMB     150      OSM      H18S     HAL3     0.900000E-01   1.00800           0
     17532 MEMB     150      OSM      H18T     HAL3     0.900000E-01   1.00800           0
     17533 MEMB     150      OSM      H18U     HAL3     0.900000E-01   1.00800           0
     17534 MEMB     150      OSM      C1F      C        0.550000       12.0110           0
     17535 MEMB     150      OSM      OF       O       -0.600000       15.9994           0
     17536 MEMB     150      OSM      C2F      CTL2    -0.700000E-01   12.0110           0
     17537 MEMB     150      OSM      H2F      HAL2     0.600000E-01   1.00800           0
     17538 MEMB     150      OSM      H2G      HAL2     0.600000E-01   1.00800           0
     17539 MEMB     150      OSM      C3F      CTL2    -0.180000       12.0110           0
     17540 MEMB     150      OSM      H3F      HAL2     0.900000E-01   1.00800           0
     17541 MEMB     150      OSM      H3G      HAL2     0.900000E-01   1.00800           0
     17542 MEMB     150      OSM      C4F      CTL2    -0.180000       12.0110           0
     17543 MEMB     150      OSM      H4F      HAL2     0.900000E-01   1.00800           0
     17544 MEMB     150      OSM      H4G      HAL2     0.900000E-01   1.00800           0
     17545 MEMB     150      OSM      C5F      CTL2    -0.180000       12.0110           0
     17546 MEMB     150      OSM      H5F      HAL2     0.900000E-01   1.00800           0
     17547 MEMB     150      OSM      H5G      HAL2     0.900000E-01   1.00800           0
     17548 MEMB     150      OSM      C6F      CTL2    -0.180000       12.0110           0
     17549 MEMB     150      OSM      H6F      HAL2     0.900000E-01   1.00800           0
     17550 MEMB     150      OSM      H6G      HAL2     0.900000E-01   1.00800           0
     17551 MEMB     150      OSM      C7F      CTL2    -0.180000       12.0110           0
     17552 MEMB     150      OSM      H7F      HAL2     0.900000E-01   1.00800           0
     17553 MEMB     150      OSM      H7G      HAL2     0.900000E-01   1.00800           0
     17554 MEMB     150      OSM      C8F      CTL2    -0.180000       12.0110           0
     17555 MEMB     150      OSM      H8F      HAL2     0.900000E-01   1.00800           0
     17556 MEMB     150      OSM      H8G      HAL2     0.900000E-01   1.00800           0
     17557 MEMB     150      OSM      C9F      CEL1    -0.150000       12.0110           0
     17558 MEMB     150      OSM      H9F      HEL1     0.150000       1.00800           0
     17559 MEMB     150      OSM      C10F     CEL1    -0.150000       12.0110           0
     17560 MEMB     150      OSM      H10F     HEL1     0.150000       1.00800           0
     17561 MEMB     150      OSM      C11F     CTL2    -0.180000       12.0110           0
     17562 MEMB     150      OSM      H11F     HAL2     0.900000E-01   1.00800           0
     17563 MEMB     150      OSM      H11G     HAL2     0.900000E-01   1.00800           0
     17564 MEMB     150      OSM      C12F     CTL2    -0.180000       12.0110           0
     17565 MEMB     150      OSM      H12F     HAL2     0.900000E-01   1.00800           0
     17566 MEMB     150      OSM      H12G     HAL2     0.900000E-01   1.00800           0
     17567 MEMB     150      OSM      C13F     CTL2    -0.180000       12.0110           0
     17568 MEMB     150      OSM      H13F     HAL2     0.900000E-01   1.00800           0
     17569 MEMB     150      OSM      H13G     HAL2     0.900000E-01   1.00800           0
     17570 MEMB     150      OSM      C14F     CTL2    -0.180000       12.0110           0
     17571 MEMB     150      OSM      H14F     HAL2     0.900000E-01   1.00800           0
     17572 MEMB     150      OSM      H14G     HAL2     0.900000E-01   1.00800           0
     17573 MEMB     150      OSM      C15F     CTL2    -0.180000       12.0110           0
     17574 MEMB     150      OSM      H15F     HAL2     0.900000E-01   1.00800           0
     17575 MEMB     150      OSM      H15G     HAL2     0.900000E-01   1.00800           0
     17576 MEMB     150      OSM      C16F     CTL2    -0.180000       12.0110           0
     17577 MEMB     150      OSM      H16F     HAL2     0.900000E-01   1.00800           0
     17578 MEMB     150      OSM      H16G     HAL2     0.900000E-01   1.00800           0
     17579 MEMB     150      OSM      C17F     CTL2    -0.180000       12.0110           0
     17580 MEMB     150      OSM      H17F     HAL2     0.900000E-01   1.00800           0
     17581 MEMB     150      OSM      H17G     HAL2     0.900000E-01   1.00800           0
     17582 MEMB     150      OSM      C18F     CTL3    -0.270000       12.0110           0
     17583 MEMB     150      OSM      H18F     HAL3     0.900000E-01   1.00800           0
     17584 MEMB     150      OSM      H18G     HAL3     0.900000E-01   1.00800           0
     17585 MEMB     150      OSM      H18H     HAL3     0.900000E-01   1.00800           0
     17586 MEMB     151      CHL1     C3       CRL1     0.140000       12.0110           0
     17587 MEMB     151      CHL1     H3       HGA1     0.900000E-01   1.00800           0
     17588 MEMB     151      CHL1     O3       OHL     -0.660000       15.9994           0
     17589 MEMB     151      CHL1     H3'      HOL      0.430000       1.00800           0
     17590 MEMB     151      CHL1     C4       CRL2    -0.180000       12.0110           0
     17591 MEMB     151      CHL1     H4A      HGA2     0.900000E-01   1.00800           0
     17592 MEMB     151      CHL1     H4B      HGA2     0.900000E-01   1.00800           0
     17593 MEMB     151      CHL1     C5       CEL1      0.00000       12.0110           0
     17594 MEMB     151      CHL1     C6       CEL1    -0.150000       12.0110           0
     17595 MEMB     151      CHL1     H6       HEL1     0.150000       1.00800           0
     17596 MEMB     151      CHL1     C7       CRL2    -0.180000       12.0110           0
     17597 MEMB     151      CHL1     H7A      HGA2     0.900000E-01   1.00800           0
     17598 MEMB     151      CHL1     H7B      HGA2     0.900000E-01   1.00800           0
     17599 MEMB     151      CHL1     C8       CRL1    -0.900000E-01   12.0110           0
     17600 MEMB     151      CHL1     H8       HGA1     0.900000E-01   1.00800           0
     17601 MEMB     151      CHL1     C14      CRL1    -0.900000E-01   12.0110           0
     17602 MEMB     151      CHL1     H14      HGA1     0.900000E-01   1.00800           0
     17603 MEMB     151      CHL1     C15      CRL2    -0.180000       12.0110           0
     17604 MEMB     151      CHL1     H15A     HGA2     0.900000E-01   1.00800           0
     17605 MEMB     151      CHL1     H15B     HGA2     0.900000E-01   1.00800           0
     17606 MEMB     151      CHL1     C16      CRL2    -0.180000       12.0110           0
     17607 MEMB     151      CHL1     H16A     HGA2     0.900000E-01   1.00800           0
     17608 MEMB     151      CHL1     H16B     HGA2     0.900000E-01   1.00800           0
     17609 MEMB     151      CHL1     C17      CRL1    -0.900000E-01   12.0110           0
     17610 MEMB     151      CHL1     H17      HGA1     0.900000E-01   1.00800           0
     17611 MEMB     151      CHL1     C13      CRL1      0.00000       12.0110           0
     17612 MEMB     151      CHL1     C18      CTL3    -0.270000       12.0110           0
     17613 MEMB     151      CHL1     H18A     HAL3     0.900000E-01   1.00800           0
     17614 MEMB     151      CHL1     H18B     HAL3     0.900000E-01   1.00800           0
     17615 MEMB     151      CHL1     H18C     HAL3     0.900000E-01   1.00800           0
     17616 MEMB     151      CHL1     C12      CRL2    -0.180000       12.0110           0
     17617 MEMB     151      CHL1     H12A     HGA2     0.900000E-01   1.00800           0
     17618 MEMB     151      CHL1     H12B     HGA2     0.900000E-01   1.00800           0
     17619 MEMB     151      CHL1     C11      CRL2    -0.180000       12.0110           0
     17620 MEMB     151      CHL1     H11A     HGA2     0.900000E-01   1.00800           0
     17621 MEMB     151      CHL1     H11B     HGA2     0.900000E-01   1.00800           0
     17622 MEMB     151      CHL1     C9       CRL1    -0.900000E-01   12.0110           0
     17623 MEMB     151      CHL1     H9       HGA1     0.900000E-01   1.00800           0
     17624 MEMB     151      CHL1     C10      CRL1      0.00000       12.0110           0
     17625 MEMB     151      CHL1     C19      CTL3    -0.270000       12.0110           0
     17626 MEMB     151      CHL1     H19A     HAL3     0.900000E-01   1.00800           0
     17627 MEMB     151      CHL1     H19B     HAL3     0.900000E-01   1.00800           0
     17628 MEMB     151      CHL1     H19C     HAL3     0.900000E-01   1.00800           0
     17629 MEMB     151      CHL1     C1       CRL2    -0.180000       12.0110           0
     17630 MEMB     151      CHL1     H1A      HGA2     0.900000E-01   1.00800           0
     17631 MEMB     151      CHL1     H1B      HGA2     0.900000E-01   1.00800           0
     17632 MEMB     151      CHL1     C2       CRL2    -0.180000       12.0110           0
     17633 MEMB     151      CHL1     H2A      HGA2     0.900000E-01   1.00800           0
     17634 MEMB     151      CHL1     H2B      HGA2     0.900000E-01   1.00800           0
     17635 MEMB     151      CHL1     C20      CTL1    -0.900000E-01   12.0110           0
     17636 MEMB     151      CHL1     H20      HAL1     0.900000E-01   1.00800           0
     17637 MEMB     151      CHL1     C21      CTL3    -0.270000       12.0110           0
     17638 MEMB     151      CHL1     H21A     HAL3     0.900000E-01   1.00800           0
     17639 MEMB     151      CHL1     H21B     HAL3     0.900000E-01   1.00800           0
     17640 MEMB     151      CHL1     H21C     HAL3     0.900000E-01   1.00800           0
     17641 MEMB     151      CHL1     C22      CTL2    -0.180000       12.0110           0
     17642 MEMB     151      CHL1     H22A     HAL2     0.900000E-01   1.00800           0
     17643 MEMB     151      CHL1     H22B     HAL2     0.900000E-01   1.00800           0
     17644 MEMB     151      CHL1     C23      CTL2    -0.180000       12.0110           0
     17645 MEMB     151      CHL1     H23A     HAL2     0.900000E-01   1.00800           0
     17646 MEMB     151      CHL1     H23B     HAL2     0.900000E-01   1.00800           0
     17647 MEMB     151      CHL1     C24      CTL2    -0.180000       12.0110           0
     17648 MEMB     151      CHL1     H24A     HAL2     0.900000E-01   1.00800           0
     17649 MEMB     151      CHL1     H24B     HAL2     0.900000E-01   1.00800           0
     17650 MEMB     151      CHL1     C25      CTL1    -0.900000E-01   12.0110           0
     17651 MEMB     151      CHL1     H25      HAL1     0.900000E-01   1.00800           0
     17652 MEMB     151      CHL1     C26      CTL3    -0.270000       12.0110           0
     17653 MEMB     151      CHL1     H26A     HAL3     0.900000E-01   1.00800           0
     17654 MEMB     151      CHL1     H26B     HAL3     0.900000E-01   1.00800           0
     17655 MEMB     151      CHL1     H26C     HAL3     0.900000E-01   1.00800           0
     17656 MEMB     151      CHL1     C27      CTL3    -0.270000       12.0110           0
     17657 MEMB     151      CHL1     H27A     HAL3     0.900000E-01   1.00800           0
     17658 MEMB     151      CHL1     H27B     HAL3     0.900000E-01   1.00800           0
     17659 MEMB     151      CHL1     H27C     HAL3     0.900000E-01   1.00800           0
     17660 MEMB     152      CHL1     C3       CRL1     0.140000       12.0110           0
     17661 MEMB     152      CHL1     H3       HGA1     0.900000E-01   1.00800           0
     17662 MEMB     152      CHL1     O3       OHL     -0.660000       15.9994           0
     17663 MEMB     152      CHL1     H3'      HOL      0.430000       1.00800           0
     17664 MEMB     152      CHL1     C4       CRL2    -0.180000       12.0110           0
     17665 MEMB     152      CHL1     H4A      HGA2     0.900000E-01   1.00800           0
     17666 MEMB     152      CHL1     H4B      HGA2     0.900000E-01   1.00800           0
     17667 MEMB     152      CHL1     C5       CEL1      0.00000       12.0110           0
     17668 MEMB     152      CHL1     C6       CEL1    -0.150000       12.0110           0
     17669 MEMB     152      CHL1     H6       HEL1     0.150000       1.00800           0
     17670 MEMB     152      CHL1     C7       CRL2    -0.180000       12.0110           0
     17671 MEMB     152      CHL1     H7A      HGA2     0.900000E-01   1.00800           0
     17672 MEMB     152      CHL1     H7B      HGA2     0.900000E-01   1.00800           0
     17673 MEMB     152      CHL1     C8       CRL1    -0.900000E-01   12.0110           0
     17674 MEMB     152      CHL1     H8       HGA1     0.900000E-01   1.00800           0
     17675 MEMB     152      CHL1     C14      CRL1    -0.900000E-01   12.0110           0
     17676 MEMB     152      CHL1     H14      HGA1     0.900000E-01   1.00800           0
     17677 MEMB     152      CHL1     C15      CRL2    -0.180000       12.0110           0
     17678 MEMB     152      CHL1     H15A     HGA2     0.900000E-01   1.00800           0
     17679 MEMB     152      CHL1     H15B     HGA2     0.900000E-01   1.00800           0
     17680 MEMB     152      CHL1     C16      CRL2    -0.180000       12.0110           0
     17681 MEMB     152      CHL1     H16A     HGA2     0.900000E-01   1.00800           0
     17682 MEMB     152      CHL1     H16B     HGA2     0.900000E-01   1.00800           0
     17683 MEMB     152      CHL1     C17      CRL1    -0.900000E-01   12.0110           0
     17684 MEMB     152      CHL1     H17      HGA1     0.900000E-01   1.00800           0
     17685 MEMB     152      CHL1     C13      CRL1      0.00000       12.0110           0
     17686 MEMB     152      CHL1     C18      CTL3    -0.270000       12.0110           0
     17687 MEMB     152      CHL1     H18A     HAL3     0.900000E-01   1.00800           0
     17688 MEMB     152      CHL1     H18B     HAL3     0.900000E-01   1.00800           0
     17689 MEMB     152      CHL1     H18C     HAL3     0.900000E-01   1.00800           0
     17690 MEMB     152      CHL1     C12      CRL2    -0.180000       12.0110           0
     17691 MEMB     152      CHL1     H12A     HGA2     0.900000E-01   1.00800           0
     17692 MEMB     152      CHL1     H12B     HGA2     0.900000E-01   1.00800           0
     17693 MEMB     152      CHL1     C11      CRL2    -0.180000       12.0110           0
     17694 MEMB     152      CHL1     H11A     HGA2     0.900000E-01   1.00800           0
     17695 MEMB     152      CHL1     H11B     HGA2     0.900000E-01   1.00800           0
     17696 MEMB     152      CHL1     C9       CRL1    -0.900000E-01   12.0110           0
     17697 MEMB     152      CHL1     H9       HGA1     0.900000E-01   1.00800           0
     17698 MEMB     152      CHL1     C10      CRL1      0.00000       12.0110           0
     17699 MEMB     152      CHL1     C19      CTL3    -0.270000       12.0110           0
     17700 MEMB     152      CHL1     H19A     HAL3     0.900000E-01   1.00800           0
     17701 MEMB     152      CHL1     H19B     HAL3     0.900000E-01   1.00800           0
     17702 MEMB     152      CHL1     H19C     HAL3     0.900000E-01   1.00800           0
     17703 MEMB     152      CHL1     C1       CRL2    -0.180000       12.0110           0
     17704 MEMB     152      CHL1     H1A      HGA2     0.900000E-01   1.00800           0
     17705 MEMB     152      CHL1     H1B      HGA2     0.900000E-01   1.00800           0
     17706 MEMB     152      CHL1     C2       CRL2    -0.180000       12.0110           0
     17707 MEMB     152      CHL1     H2A      HGA2     0.900000E-01   1.00800           0
     17708 MEMB     152      CHL1     H2B      HGA2     0.900000E-01   1.00800           0
     17709 MEMB     152      CHL1     C20      CTL1    -0.900000E-01   12.0110           0
     17710 MEMB     152      CHL1     H20      HAL1     0.900000E-01   1.00800           0
     17711 MEMB     152      CHL1     C21      CTL3    -0.270000       12.0110           0
     17712 MEMB     152      CHL1     H21A     HAL3     0.900000E-01   1.00800           0
     17713 MEMB     152      CHL1     H21B     HAL3     0.900000E-01   1.00800           0
     17714 MEMB     152      CHL1     H21C     HAL3     0.900000E-01   1.00800           0
     17715 MEMB     152      CHL1     C22      CTL2    -0.180000       12.0110           0
     17716 MEMB     152      CHL1     H22A     HAL2     0.900000E-01   1.00800           0
     17717 MEMB     152      CHL1     H22B     HAL2     0.900000E-01   1.00800           0
     17718 MEMB     152      CHL1     C23      CTL2    -0.180000       12.0110           0
     17719 MEMB     152      CHL1     H23A     HAL2     0.900000E-01   1.00800           0
     17720 MEMB     152      CHL1     H23B     HAL2     0.900000E-01   1.00800           0
     17721 MEMB     152      CHL1     C24      CTL2    -0.180000       12.0110           0
     17722 MEMB     152      CHL1     H24A     HAL2     0.900000E-01   1.00800           0
     17723 MEMB     152      CHL1     H24B     HAL2     0.900000E-01   1.00800           0
     17724 MEMB     152      CHL1     C25      CTL1    -0.900000E-01   12.0110           0
     17725 MEMB     152      CHL1     H25      HAL1     0.900000E-01   1.00800           0
     17726 MEMB     152      CHL1     C26      CTL3    -0.270000       12.0110           0
     17727 MEMB     152      CHL1     H26A     HAL3     0.900000E-01   1.00800           0
     17728 MEMB     152      CHL1     H26B     HAL3     0.900000E-01   1.00800           0
     17729 MEMB     152      CHL1     H26C     HAL3     0.900000E-01   1.00800           0
     17730 MEMB     152      CHL1     C27      CTL3    -0.270000       12.0110           0
     17731 MEMB     152      CHL1     H27A     HAL3     0.900000E-01   1.00800           0
     17732 MEMB     152      CHL1     H27B     HAL3     0.900000E-01   1.00800           0
     17733 MEMB     152      CHL1     H27C     HAL3     0.900000E-01   1.00800           0
     17734 MEMB     153      CHL1     C3       CRL1     0.140000       12.0110           0
     17735 MEMB     153      CHL1     H3       HGA1     0.900000E-01   1.00800           0
     17736 MEMB     153      CHL1     O3       OHL     -0.660000       15.9994           0
     17737 MEMB     153      CHL1     H3'      HOL      0.430000       1.00800           0
     17738 MEMB     153      CHL1     C4       CRL2    -0.180000       12.0110           0
     17739 MEMB     153      CHL1     H4A      HGA2     0.900000E-01   1.00800           0
     17740 MEMB     153      CHL1     H4B      HGA2     0.900000E-01   1.00800           0
     17741 MEMB     153      CHL1     C5       CEL1      0.00000       12.0110           0
     17742 MEMB     153      CHL1     C6       CEL1    -0.150000       12.0110           0
     17743 MEMB     153      CHL1     H6       HEL1     0.150000       1.00800           0
     17744 MEMB     153      CHL1     C7       CRL2    -0.180000       12.0110           0
     17745 MEMB     153      CHL1     H7A      HGA2     0.900000E-01   1.00800           0
     17746 MEMB     153      CHL1     H7B      HGA2     0.900000E-01   1.00800           0
     17747 MEMB     153      CHL1     C8       CRL1    -0.900000E-01   12.0110           0
     17748 MEMB     153      CHL1     H8       HGA1     0.900000E-01   1.00800           0
     17749 MEMB     153      CHL1     C14      CRL1    -0.900000E-01   12.0110           0
     17750 MEMB     153      CHL1     H14      HGA1     0.900000E-01   1.00800           0
     17751 MEMB     153      CHL1     C15      CRL2    -0.180000       12.0110           0
     17752 MEMB     153      CHL1     H15A     HGA2     0.900000E-01   1.00800           0
     17753 MEMB     153      CHL1     H15B     HGA2     0.900000E-01   1.00800           0
     17754 MEMB     153      CHL1     C16      CRL2    -0.180000       12.0110           0
     17755 MEMB     153      CHL1     H16A     HGA2     0.900000E-01   1.00800           0
     17756 MEMB     153      CHL1     H16B     HGA2     0.900000E-01   1.00800           0
     17757 MEMB     153      CHL1     C17      CRL1    -0.900000E-01   12.0110           0
     17758 MEMB     153      CHL1     H17      HGA1     0.900000E-01   1.00800           0
     17759 MEMB     153      CHL1     C13      CRL1      0.00000       12.0110           0
     17760 MEMB     153      CHL1     C18      CTL3    -0.270000       12.0110           0
     17761 MEMB     153      CHL1     H18A     HAL3     0.900000E-01   1.00800           0
     17762 MEMB     153      CHL1     H18B     HAL3     0.900000E-01   1.00800           0
     17763 MEMB     153      CHL1     H18C     HAL3     0.900000E-01   1.00800           0
     17764 MEMB     153      CHL1     C12      CRL2    -0.180000       12.0110           0
     17765 MEMB     153      CHL1     H12A     HGA2     0.900000E-01   1.00800           0
     17766 MEMB     153      CHL1     H12B     HGA2     0.900000E-01   1.00800           0
     17767 MEMB     153      CHL1     C11      CRL2    -0.180000       12.0110           0
     17768 MEMB     153      CHL1     H11A     HGA2     0.900000E-01   1.00800           0
     17769 MEMB     153      CHL1     H11B     HGA2     0.900000E-01   1.00800           0
     17770 MEMB     153      CHL1     C9       CRL1    -0.900000E-01   12.0110           0
     17771 MEMB     153      CHL1     H9       HGA1     0.900000E-01   1.00800           0
     17772 MEMB     153      CHL1     C10      CRL1      0.00000       12.0110           0
     17773 MEMB     153      CHL1     C19      CTL3    -0.270000       12.0110           0
     17774 MEMB     153      CHL1     H19A     HAL3     0.900000E-01   1.00800           0
     17775 MEMB     153      CHL1     H19B     HAL3     0.900000E-01   1.00800           0
     17776 MEMB     153      CHL1     H19C     HAL3     0.900000E-01   1.00800           0
     17777 MEMB     153      CHL1     C1       CRL2    -0.180000       12.0110           0
     17778 MEMB     153      CHL1     H1A      HGA2     0.900000E-01   1.00800           0
     17779 MEMB     153      CHL1     H1B      HGA2     0.900000E-01   1.00800           0
     17780 MEMB     153      CHL1     C2       CRL2    -0.180000       12.0110           0
     17781 MEMB     153      CHL1     H2A      HGA2     0.900000E-01   1.00800           0
     17782 MEMB     153      CHL1     H2B      HGA2     0.900000E-01   1.00800           0
     17783 MEMB     153      CHL1     C20      CTL1    -0.900000E-01   12.0110           0
     17784 MEMB     153      CHL1     H20      HAL1     0.900000E-01   1.00800           0
     17785 MEMB     153      CHL1     C21      CTL3    -0.270000       12.0110           0
     17786 MEMB     153      CHL1     H21A     HAL3     0.900000E-01   1.00800           0
     17787 MEMB     153      CHL1     H21B     HAL3     0.900000E-01   1.00800           0
     17788 MEMB     153      CHL1     H21C     HAL3     0.900000E-01   1.00800           0
     17789 MEMB     153      CHL1     C22      CTL2    -0.180000       12.0110           0
     17790 MEMB     153      CHL1     H22A     HAL2     0.900000E-01   1.00800           0
     17791 MEMB     153      CHL1     H22B     HAL2     0.900000E-01   1.00800           0
     17792 MEMB     153      CHL1     C23      CTL2    -0.180000       12.0110           0
     17793 MEMB     153      CHL1     H23A     HAL2     0.900000E-01   1.00800           0
     17794 MEMB     153      CHL1     H23B     HAL2     0.900000E-01   1.00800           0
     17795 MEMB     153      CHL1     C24      CTL2    -0.180000       12.0110           0
     17796 MEMB     153      CHL1     H24A     HAL2     0.900000E-01   1.00800           0
     17797 MEMB     153      CHL1     H24B     HAL2     0.900000E-01   1.00800           0
     17798 MEMB     153      CHL1     C25      CTL1    -0.900000E-01   12.0110           0
     17799 MEMB     153      CHL1     H25      HAL1     0.900000E-01   1.00800           0
     17800 MEMB     153      CHL1     C26      CTL3    -0.270000       12.0110           0
     17801 MEMB     153      CHL1     H26A     HAL3     0.900000E-01   1.00800           0
     17802 MEMB     153      CHL1     H26B     HAL3     0.900000E-01   1.00800           0
     17803 MEMB     153      CHL1     H26C     HAL3     0.900000E-01   1.00800           0
     17804 MEMB     153      CHL1     C27      CTL3    -0.270000       12.0110           0
     17805 MEMB     153      CHL1     H27A     HAL3     0.900000E-01   1.00800           0
     17806 MEMB     153      CHL1     H27B     HAL3     0.900000E-01   1.00800           0
     17807 MEMB     153      CHL1     H27C     HAL3     0.900000E-01   1.00800           0
     17808 MEMB     154      CHL1     C3       CRL1     0.140000       12.0110           0
     17809 MEMB     154      CHL1     H3       HGA1     0.900000E-01   1.00800           0
     17810 MEMB     154      CHL1     O3       OHL     -0.660000       15.9994           0
     17811 MEMB     154      CHL1     H3'      HOL      0.430000       1.00800           0
     17812 MEMB     154      CHL1     C4       CRL2    -0.180000       12.0110           0
     17813 MEMB     154      CHL1     H4A      HGA2     0.900000E-01   1.00800           0
     17814 MEMB     154      CHL1     H4B      HGA2     0.900000E-01   1.00800           0
     17815 MEMB     154      CHL1     C5       CEL1      0.00000       12.0110           0
     17816 MEMB     154      CHL1     C6       CEL1    -0.150000       12.0110           0
     17817 MEMB     154      CHL1     H6       HEL1     0.150000       1.00800           0
     17818 MEMB     154      CHL1     C7       CRL2    -0.180000       12.0110           0
     17819 MEMB     154      CHL1     H7A      HGA2     0.900000E-01   1.00800           0
     17820 MEMB     154      CHL1     H7B      HGA2     0.900000E-01   1.00800           0
     17821 MEMB     154      CHL1     C8       CRL1    -0.900000E-01   12.0110           0
     17822 MEMB     154      CHL1     H8       HGA1     0.900000E-01   1.00800           0
     17823 MEMB     154      CHL1     C14      CRL1    -0.900000E-01   12.0110           0
     17824 MEMB     154      CHL1     H14      HGA1     0.900000E-01   1.00800           0
     17825 MEMB     154      CHL1     C15      CRL2    -0.180000       12.0110           0
     17826 MEMB     154      CHL1     H15A     HGA2     0.900000E-01   1.00800           0
     17827 MEMB     154      CHL1     H15B     HGA2     0.900000E-01   1.00800           0
     17828 MEMB     154      CHL1     C16      CRL2    -0.180000       12.0110           0
     17829 MEMB     154      CHL1     H16A     HGA2     0.900000E-01   1.00800           0
     17830 MEMB     154      CHL1     H16B     HGA2     0.900000E-01   1.00800           0
     17831 MEMB     154      CHL1     C17      CRL1    -0.900000E-01   12.0110           0
     17832 MEMB     154      CHL1     H17      HGA1     0.900000E-01   1.00800           0
     17833 MEMB     154      CHL1     C13      CRL1      0.00000       12.0110           0
     17834 MEMB     154      CHL1     C18      CTL3    -0.270000       12.0110           0
     17835 MEMB     154      CHL1     H18A     HAL3     0.900000E-01   1.00800           0
     17836 MEMB     154      CHL1     H18B     HAL3     0.900000E-01   1.00800           0
     17837 MEMB     154      CHL1     H18C     HAL3     0.900000E-01   1.00800           0
     17838 MEMB     154      CHL1     C12      CRL2    -0.180000       12.0110           0
     17839 MEMB     154      CHL1     H12A     HGA2     0.900000E-01   1.00800           0
     17840 MEMB     154      CHL1     H12B     HGA2     0.900000E-01   1.00800           0
     17841 MEMB     154      CHL1     C11      CRL2    -0.180000       12.0110           0
     17842 MEMB     154      CHL1     H11A     HGA2     0.900000E-01   1.00800           0
     17843 MEMB     154      CHL1     H11B     HGA2     0.900000E-01   1.00800           0
     17844 MEMB     154      CHL1     C9       CRL1    -0.900000E-01   12.0110           0
     17845 MEMB     154      CHL1     H9       HGA1     0.900000E-01   1.00800           0
     17846 MEMB     154      CHL1     C10      CRL1      0.00000       12.0110           0
     17847 MEMB     154      CHL1     C19      CTL3    -0.270000       12.0110           0
     17848 MEMB     154      CHL1     H19A     HAL3     0.900000E-01   1.00800           0
     17849 MEMB     154      CHL1     H19B     HAL3     0.900000E-01   1.00800           0
     17850 MEMB     154      CHL1     H19C     HAL3     0.900000E-01   1.00800           0
     17851 MEMB     154      CHL1     C1       CRL2    -0.180000       12.0110           0
     17852 MEMB     154      CHL1     H1A      HGA2     0.900000E-01   1.00800           0
     17853 MEMB     154      CHL1     H1B      HGA2     0.900000E-01   1.00800           0
     17854 MEMB     154      CHL1     C2       CRL2    -0.180000       12.0110           0
     17855 MEMB     154      CHL1     H2A      HGA2     0.900000E-01   1.00800           0
     17856 MEMB     154      CHL1     H2B      HGA2     0.900000E-01   1.00800           0
     17857 MEMB     154      CHL1     C20      CTL1    -0.900000E-01   12.0110           0
     17858 MEMB     154      CHL1     H20      HAL1     0.900000E-01   1.00800           0
     17859 MEMB     154      CHL1     C21      CTL3    -0.270000       12.0110           0
     17860 MEMB     154      CHL1     H21A     HAL3     0.900000E-01   1.00800           0
     17861 MEMB     154      CHL1     H21B     HAL3     0.900000E-01   1.00800           0
     17862 MEMB     154      CHL1     H21C     HAL3     0.900000E-01   1.00800           0
     17863 MEMB     154      CHL1     C22      CTL2    -0.180000       12.0110           0
     17864 MEMB     154      CHL1     H22A     HAL2     0.900000E-01   1.00800           0
     17865 MEMB     154      CHL1     H22B     HAL2     0.900000E-01   1.00800           0
     17866 MEMB     154      CHL1     C23      CTL2    -0.180000       12.0110           0
     17867 MEMB     154      CHL1     H23A     HAL2     0.900000E-01   1.00800           0
     17868 MEMB     154      CHL1     H23B     HAL2     0.900000E-01   1.00800           0
     17869 MEMB     154      CHL1     C24      CTL2    -0.180000       12.0110           0
     17870 MEMB     154      CHL1     H24A     HAL2     0.900000E-01   1.00800           0
     17871 MEMB     154      CHL1     H24B     HAL2     0.900000E-01   1.00800           0
     17872 MEMB     154      CHL1     C25      CTL1    -0.900000E-01   12.0110           0
     17873 MEMB     154      CHL1     H25      HAL1     0.900000E-01   1.00800           0
     17874 MEMB     154      CHL1     C26      CTL3    -0.270000       12.0110           0
     17875 MEMB     154      CHL1     H26A     HAL3     0.900000E-01   1.00800           0
     17876 MEMB     154      CHL1     H26B     HAL3     0.900000E-01   1.00800           0
     17877 MEMB     154      CHL1     H26C     HAL3     0.900000E-01   1.00800           0
     17878 MEMB     154      CHL1     C27      CTL3    -0.270000       12.0110           0
     17879 MEMB     154      CHL1     H27A     HAL3     0.900000E-01   1.00800           0
     17880 MEMB     154      CHL1     H27B     HAL3     0.900000E-01   1.00800           0
     17881 MEMB     154      CHL1     H27C     HAL3     0.900000E-01   1.00800           0
     17882 MEMB     155      CHL1     C3       CRL1     0.140000       12.0110           0
     17883 MEMB     155      CHL1     H3       HGA1     0.900000E-01   1.00800           0
     17884 MEMB     155      CHL1     O3       OHL     -0.660000       15.9994           0
     17885 MEMB     155      CHL1     H3'      HOL      0.430000       1.00800           0
     17886 MEMB     155      CHL1     C4       CRL2    -0.180000       12.0110           0
     17887 MEMB     155      CHL1     H4A      HGA2     0.900000E-01   1.00800           0
     17888 MEMB     155      CHL1     H4B      HGA2     0.900000E-01   1.00800           0
     17889 MEMB     155      CHL1     C5       CEL1      0.00000       12.0110           0
     17890 MEMB     155      CHL1     C6       CEL1    -0.150000       12.0110           0
     17891 MEMB     155      CHL1     H6       HEL1     0.150000       1.00800           0
     17892 MEMB     155      CHL1     C7       CRL2    -0.180000       12.0110           0
     17893 MEMB     155      CHL1     H7A      HGA2     0.900000E-01   1.00800           0
     17894 MEMB     155      CHL1     H7B      HGA2     0.900000E-01   1.00800           0
     17895 MEMB     155      CHL1     C8       CRL1    -0.900000E-01   12.0110           0
     17896 MEMB     155      CHL1     H8       HGA1     0.900000E-01   1.00800           0
     17897 MEMB     155      CHL1     C14      CRL1    -0.900000E-01   12.0110           0
     17898 MEMB     155      CHL1     H14      HGA1     0.900000E-01   1.00800           0
     17899 MEMB     155      CHL1     C15      CRL2    -0.180000       12.0110           0
     17900 MEMB     155      CHL1     H15A     HGA2     0.900000E-01   1.00800           0
     17901 MEMB     155      CHL1     H15B     HGA2     0.900000E-01   1.00800           0
     17902 MEMB     155      CHL1     C16      CRL2    -0.180000       12.0110           0
     17903 MEMB     155      CHL1     H16A     HGA2     0.900000E-01   1.00800           0
     17904 MEMB     155      CHL1     H16B     HGA2     0.900000E-01   1.00800           0
     17905 MEMB     155      CHL1     C17      CRL1    -0.900000E-01   12.0110           0
     17906 MEMB     155      CHL1     H17      HGA1     0.900000E-01   1.00800           0
     17907 MEMB     155      CHL1     C13      CRL1      0.00000       12.0110           0
     17908 MEMB     155      CHL1     C18      CTL3    -0.270000       12.0110           0
     17909 MEMB     155      CHL1     H18A     HAL3     0.900000E-01   1.00800           0
     17910 MEMB     155      CHL1     H18B     HAL3     0.900000E-01   1.00800           0
     17911 MEMB     155      CHL1     H18C     HAL3     0.900000E-01   1.00800           0
     17912 MEMB     155      CHL1     C12      CRL2    -0.180000       12.0110           0
     17913 MEMB     155      CHL1     H12A     HGA2     0.900000E-01   1.00800           0
     17914 MEMB     155      CHL1     H12B     HGA2     0.900000E-01   1.00800           0
     17915 MEMB     155      CHL1     C11      CRL2    -0.180000       12.0110           0
     17916 MEMB     155      CHL1     H11A     HGA2     0.900000E-01   1.00800           0
     17917 MEMB     155      CHL1     H11B     HGA2     0.900000E-01   1.00800           0
     17918 MEMB     155      CHL1     C9       CRL1    -0.900000E-01   12.0110           0
     17919 MEMB     155      CHL1     H9       HGA1     0.900000E-01   1.00800           0
     17920 MEMB     155      CHL1     C10      CRL1      0.00000       12.0110           0
     17921 MEMB     155      CHL1     C19      CTL3    -0.270000       12.0110           0
     17922 MEMB     155      CHL1     H19A     HAL3     0.900000E-01   1.00800           0
     17923 MEMB     155      CHL1     H19B     HAL3     0.900000E-01   1.00800           0
     17924 MEMB     155      CHL1     H19C     HAL3     0.900000E-01   1.00800           0
     17925 MEMB     155      CHL1     C1       CRL2    -0.180000       12.0110           0
     17926 MEMB     155      CHL1     H1A      HGA2     0.900000E-01   1.00800           0
     17927 MEMB     155      CHL1     H1B      HGA2     0.900000E-01   1.00800           0
     17928 MEMB     155      CHL1     C2       CRL2    -0.180000       12.0110           0
     17929 MEMB     155      CHL1     H2A      HGA2     0.900000E-01   1.00800           0
     17930 MEMB     155      CHL1     H2B      HGA2     0.900000E-01   1.00800           0
     17931 MEMB     155      CHL1     C20      CTL1    -0.900000E-01   12.0110           0
     17932 MEMB     155      CHL1     H20      HAL1     0.900000E-01   1.00800           0
     17933 MEMB     155      CHL1     C21      CTL3    -0.270000       12.0110           0
     17934 MEMB     155      CHL1     H21A     HAL3     0.900000E-01   1.00800           0
     17935 MEMB     155      CHL1     H21B     HAL3     0.900000E-01   1.00800           0
     17936 MEMB     155      CHL1     H21C     HAL3     0.900000E-01   1.00800           0
     17937 MEMB     155      CHL1     C22      CTL2    -0.180000       12.0110           0
     17938 MEMB     155      CHL1     H22A     HAL2     0.900000E-01   1.00800           0
     17939 MEMB     155      CHL1     H22B     HAL2     0.900000E-01   1.00800           0
     17940 MEMB     155      CHL1     C23      CTL2    -0.180000       12.0110           0
     17941 MEMB     155      CHL1     H23A     HAL2     0.900000E-01   1.00800           0
     17942 MEMB     155      CHL1     H23B     HAL2     0.900000E-01   1.00800           0
     17943 MEMB     155      CHL1     C24      CTL2    -0.180000       12.0110           0
     17944 MEMB     155      CHL1     H24A     HAL2     0.900000E-01   1.00800           0
     17945 MEMB     155      CHL1     H24B     HAL2     0.900000E-01   1.00800           0
     17946 MEMB     155      CHL1     C25      CTL1    -0.900000E-01   12.0110           0
     17947 MEMB     155      CHL1     H25      HAL1     0.900000E-01   1.00800           0
     17948 MEMB     155      CHL1     C26      CTL3    -0.270000       12.0110           0
     17949 MEMB     155      CHL1     H26A     HAL3     0.900000E-01   1.00800           0
     17950 MEMB     155      CHL1     H26B     HAL3     0.900000E-01   1.00800           0
     17951 MEMB     155      CHL1     H26C     HAL3     0.900000E-01   1.00800           0
     17952 MEMB     155      CHL1     C27      CTL3    -0.270000       12.0110           0
     17953 MEMB     155      CHL1     H27A     HAL3     0.900000E-01   1.00800           0
     17954 MEMB     155      CHL1     H27B     HAL3     0.900000E-01   1.00800           0
     17955 MEMB     155      CHL1     H27C     HAL3     0.900000E-01   1.00800           0
     17956 MEMB     156      CHL1     C3       CRL1     0.140000       12.0110           0
     17957 MEMB     156      CHL1     H3       HGA1     0.900000E-01   1.00800           0
     17958 MEMB     156      CHL1     O3       OHL     -0.660000       15.9994           0
     17959 MEMB     156      CHL1     H3'      HOL      0.430000       1.00800           0
     17960 MEMB     156      CHL1     C4       CRL2    -0.180000       12.0110           0
     17961 MEMB     156      CHL1     H4A      HGA2     0.900000E-01   1.00800           0
     17962 MEMB     156      CHL1     H4B      HGA2     0.900000E-01   1.00800           0
     17963 MEMB     156      CHL1     C5       CEL1      0.00000       12.0110           0
     17964 MEMB     156      CHL1     C6       CEL1    -0.150000       12.0110           0
     17965 MEMB     156      CHL1     H6       HEL1     0.150000       1.00800           0
     17966 MEMB     156      CHL1     C7       CRL2    -0.180000       12.0110           0
     17967 MEMB     156      CHL1     H7A      HGA2     0.900000E-01   1.00800           0
     17968 MEMB     156      CHL1     H7B      HGA2     0.900000E-01   1.00800           0
     17969 MEMB     156      CHL1     C8       CRL1    -0.900000E-01   12.0110           0
     17970 MEMB     156      CHL1     H8       HGA1     0.900000E-01   1.00800           0
     17971 MEMB     156      CHL1     C14      CRL1    -0.900000E-01   12.0110           0
     17972 MEMB     156      CHL1     H14      HGA1     0.900000E-01   1.00800           0
     17973 MEMB     156      CHL1     C15      CRL2    -0.180000       12.0110           0
     17974 MEMB     156      CHL1     H15A     HGA2     0.900000E-01   1.00800           0
     17975 MEMB     156      CHL1     H15B     HGA2     0.900000E-01   1.00800           0
     17976 MEMB     156      CHL1     C16      CRL2    -0.180000       12.0110           0
     17977 MEMB     156      CHL1     H16A     HGA2     0.900000E-01   1.00800           0
     17978 MEMB     156      CHL1     H16B     HGA2     0.900000E-01   1.00800           0
     17979 MEMB     156      CHL1     C17      CRL1    -0.900000E-01   12.0110           0
     17980 MEMB     156      CHL1     H17      HGA1     0.900000E-01   1.00800           0
     17981 MEMB     156      CHL1     C13      CRL1      0.00000       12.0110           0
     17982 MEMB     156      CHL1     C18      CTL3    -0.270000       12.0110           0
     17983 MEMB     156      CHL1     H18A     HAL3     0.900000E-01   1.00800           0
     17984 MEMB     156      CHL1     H18B     HAL3     0.900000E-01   1.00800           0
     17985 MEMB     156      CHL1     H18C     HAL3     0.900000E-01   1.00800           0
     17986 MEMB     156      CHL1     C12      CRL2    -0.180000       12.0110           0
     17987 MEMB     156      CHL1     H12A     HGA2     0.900000E-01   1.00800           0
     17988 MEMB     156      CHL1     H12B     HGA2     0.900000E-01   1.00800           0
     17989 MEMB     156      CHL1     C11      CRL2    -0.180000       12.0110           0
     17990 MEMB     156      CHL1     H11A     HGA2     0.900000E-01   1.00800           0
     17991 MEMB     156      CHL1     H11B     HGA2     0.900000E-01   1.00800           0
     17992 MEMB     156      CHL1     C9       CRL1    -0.900000E-01   12.0110           0
     17993 MEMB     156      CHL1     H9       HGA1     0.900000E-01   1.00800           0
     17994 MEMB     156      CHL1     C10      CRL1      0.00000       12.0110           0
     17995 MEMB     156      CHL1     C19      CTL3    -0.270000       12.0110           0
     17996 MEMB     156      CHL1     H19A     HAL3     0.900000E-01   1.00800           0
     17997 MEMB     156      CHL1     H19B     HAL3     0.900000E-01   1.00800           0
     17998 MEMB     156      CHL1     H19C     HAL3     0.900000E-01   1.00800           0
     17999 MEMB     156      CHL1     C1       CRL2    -0.180000       12.0110           0
     18000 MEMB     156      CHL1     H1A      HGA2     0.900000E-01   1.00800           0
     18001 MEMB     156      CHL1     H1B      HGA2     0.900000E-01   1.00800           0
     18002 MEMB     156      CHL1     C2       CRL2    -0.180000       12.0110           0
     18003 MEMB     156      CHL1     H2A      HGA2     0.900000E-01   1.00800           0
     18004 MEMB     156      CHL1     H2B      HGA2     0.900000E-01   1.00800           0
     18005 MEMB     156      CHL1     C20      CTL1    -0.900000E-01   12.0110           0
     18006 MEMB     156      CHL1     H20      HAL1     0.900000E-01   1.00800           0
     18007 MEMB     156      CHL1     C21      CTL3    -0.270000       12.0110           0
     18008 MEMB     156      CHL1     H21A     HAL3     0.900000E-01   1.00800           0
     18009 MEMB     156      CHL1     H21B     HAL3     0.900000E-01   1.00800           0
     18010 MEMB     156      CHL1     H21C     HAL3     0.900000E-01   1.00800           0
     18011 MEMB     156      CHL1     C22      CTL2    -0.180000       12.0110           0
     18012 MEMB     156      CHL1     H22A     HAL2     0.900000E-01   1.00800           0
     18013 MEMB     156      CHL1     H22B     HAL2     0.900000E-01   1.00800           0
     18014 MEMB     156      CHL1     C23      CTL2    -0.180000       12.0110           0
     18015 MEMB     156      CHL1     H23A     HAL2     0.900000E-01   1.00800           0
     18016 MEMB     156      CHL1     H23B     HAL2     0.900000E-01   1.00800           0
     18017 MEMB     156      CHL1     C24      CTL2    -0.180000       12.0110           0
     18018 MEMB     156      CHL1     H24A     HAL2     0.900000E-01   1.00800           0
     18019 MEMB     156      CHL1     H24B     HAL2     0.900000E-01   1.00800           0
     18020 MEMB     156      CHL1     C25      CTL1    -0.900000E-01   12.0110           0
     18021 MEMB     156      CHL1     H25      HAL1     0.900000E-01   1.00800           0
     18022 MEMB     156      CHL1     C26      CTL3    -0.270000       12.0110           0
     18023 MEMB     156      CHL1     H26A     HAL3     0.900000E-01   1.00800           0
     18024 MEMB     156      CHL1     H26B     HAL3     0.900000E-01   1.00800           0
     18025 MEMB     156      CHL1     H26C     HAL3     0.900000E-01   1.00800           0
     18026 MEMB     156      CHL1     C27      CTL3    -0.270000       12.0110           0
     18027 MEMB     156      CHL1     H27A     HAL3     0.900000E-01   1.00800           0
     18028 MEMB     156      CHL1     H27B     HAL3     0.900000E-01   1.00800           0
     18029 MEMB     156      CHL1     H27C     HAL3     0.900000E-01   1.00800           0
     18030 MEMB     157      OSM      N        NTL     -0.600000       14.0070           0
     18031 MEMB     157      OSM      C15      CTL5    -0.350000       12.0110           0
     18032 MEMB     157      OSM      H15A     HL       0.250000       1.00800           0
     18033 MEMB     157      OSM      H15B     HL       0.250000       1.00800           0
     18034 MEMB     157      OSM      H15C     HL       0.250000       1.00800           0
     18035 MEMB     157      OSM      C14      CTL5    -0.350000       12.0110           0
     18036 MEMB     157      OSM      H14A     HL       0.250000       1.00800           0
     18037 MEMB     157      OSM      H14B     HL       0.250000       1.00800           0
     18038 MEMB     157      OSM      H14C     HL       0.250000       1.00800           0
     18039 MEMB     157      OSM      C13      CTL5    -0.350000       12.0110           0
     18040 MEMB     157      OSM      H13A     HL       0.250000       1.00800           0
     18041 MEMB     157      OSM      H13B     HL       0.250000       1.00800           0
     18042 MEMB     157      OSM      H13C     HL       0.250000       1.00800           0
     18043 MEMB     157      OSM      C12      CTL2    -0.100000       12.0110           0
     18044 MEMB     157      OSM      H12A     HL       0.250000       1.00800           0
     18045 MEMB     157      OSM      H12B     HL       0.250000       1.00800           0
     18046 MEMB     157      OSM      C11      CTL2    -0.800000E-01   12.0110           0
     18047 MEMB     157      OSM      H11A     HAL2     0.900000E-01   1.00800           0
     18048 MEMB     157      OSM      H11B     HAL2     0.900000E-01   1.00800           0
     18049 MEMB     157      OSM      P        PL        1.50000       30.9740           0
     18050 MEMB     157      OSM      O13      O2L     -0.780000       15.9994           0
     18051 MEMB     157      OSM      O14      O2L     -0.780000       15.9994           0
     18052 MEMB     157      OSM      O11      OSLP    -0.570000       15.9994           0
     18053 MEMB     157      OSM      O12      OSLP    -0.570000       15.9994           0
     18054 MEMB     157      OSM      C1S      CTL2    -0.800000E-01   12.0110           0
     18055 MEMB     157      OSM      H1S      HAL2     0.900000E-01   1.00800           0
     18056 MEMB     157      OSM      H1T      HAL2     0.900000E-01   1.00800           0
     18057 MEMB     157      OSM      NF       NHL     -0.700000       14.0070           0
     18058 MEMB     157      OSM      HNF      H        0.350000       1.00800           0
     18059 MEMB     157      OSM      C2S      CTL1     0.300000       12.0110           0
     18060 MEMB     157      OSM      H2S      HAL1     0.500000E-01   1.00800           0
     18061 MEMB     157      OSM      C3S      CTO1     0.500000       12.0110           0
     18062 MEMB     157      OSM      H3S      HAL1    -0.110000       1.00800           0
     18063 MEMB     157      OSM      O3       OHL     -0.690000       15.9994           0
     18064 MEMB     157      OSM      HO3      HOL      0.300000       1.00800           0
     18065 MEMB     157      OSM      C4S      CEL3    -0.150000       12.0110           0
     18066 MEMB     157      OSM      H4S      HEL1     0.150000       1.00800           0
     18067 MEMB     157      OSM      C5S      CEL3    -0.150000       12.0110           0
     18068 MEMB     157      OSM      H5S      HEL1     0.150000       1.00800           0
     18069 MEMB     157      OSM      C6S      CTL2    -0.180000       12.0110           0
     18070 MEMB     157      OSM      H6S      HAL2     0.900000E-01   1.00800           0
     18071 MEMB     157      OSM      H6T      HAL2     0.900000E-01   1.00800           0
     18072 MEMB     157      OSM      C7S      CTL2    -0.180000       12.0110           0
     18073 MEMB     157      OSM      H7S      HAL2     0.900000E-01   1.00800           0
     18074 MEMB     157      OSM      H7T      HAL2     0.900000E-01   1.00800           0
     18075 MEMB     157      OSM      C8S      CTL2    -0.180000       12.0110           0
     18076 MEMB     157      OSM      H8S      HAL2     0.900000E-01   1.00800           0
     18077 MEMB     157      OSM      H8T      HAL2     0.900000E-01   1.00800           0
     18078 MEMB     157      OSM      C9S      CTL2    -0.180000       12.0110           0
     18079 MEMB     157      OSM      H9S      HAL2     0.900000E-01   1.00800           0
     18080 MEMB     157      OSM      H9T      HAL2     0.900000E-01   1.00800           0
     18081 MEMB     157      OSM      C10S     CTL2    -0.180000       12.0110           0
     18082 MEMB     157      OSM      H10S     HAL2     0.900000E-01   1.00800           0
     18083 MEMB     157      OSM      H10T     HAL2     0.900000E-01   1.00800           0
     18084 MEMB     157      OSM      C11S     CTL2    -0.180000       12.0110           0
     18085 MEMB     157      OSM      H11S     HAL2     0.900000E-01   1.00800           0
     18086 MEMB     157      OSM      H11T     HAL2     0.900000E-01   1.00800           0
     18087 MEMB     157      OSM      C12S     CTL2    -0.180000       12.0110           0
     18088 MEMB     157      OSM      H12S     HAL2     0.900000E-01   1.00800           0
     18089 MEMB     157      OSM      H12T     HAL2     0.900000E-01   1.00800           0
     18090 MEMB     157      OSM      C13S     CTL2    -0.180000       12.0110           0
     18091 MEMB     157      OSM      H13S     HAL2     0.900000E-01   1.00800           0
     18092 MEMB     157      OSM      H13T     HAL2     0.900000E-01   1.00800           0
     18093 MEMB     157      OSM      C14S     CTL2    -0.180000       12.0110           0
     18094 MEMB     157      OSM      H14S     HAL2     0.900000E-01   1.00800           0
     18095 MEMB     157      OSM      H14T     HAL2     0.900000E-01   1.00800           0
     18096 MEMB     157      OSM      C15S     CTL2    -0.180000       12.0110           0
     18097 MEMB     157      OSM      H15S     HAL2     0.900000E-01   1.00800           0
     18098 MEMB     157      OSM      H15T     HAL2     0.900000E-01   1.00800           0
     18099 MEMB     157      OSM      C16S     CTL2    -0.180000       12.0110           0
     18100 MEMB     157      OSM      H16S     HAL2     0.900000E-01   1.00800           0
     18101 MEMB     157      OSM      H16T     HAL2     0.900000E-01   1.00800           0
     18102 MEMB     157      OSM      C17S     CTL2    -0.180000       12.0110           0
     18103 MEMB     157      OSM      H17S     HAL2     0.900000E-01   1.00800           0
     18104 MEMB     157      OSM      H17T     HAL2     0.900000E-01   1.00800           0
     18105 MEMB     157      OSM      C18S     CTL3    -0.270000       12.0110           0
     18106 MEMB     157      OSM      H18S     HAL3     0.900000E-01   1.00800           0
     18107 MEMB     157      OSM      H18T     HAL3     0.900000E-01   1.00800           0
     18108 MEMB     157      OSM      H18U     HAL3     0.900000E-01   1.00800           0
     18109 MEMB     157      OSM      C1F      C        0.550000       12.0110           0
     18110 MEMB     157      OSM      OF       O       -0.600000       15.9994           0
     18111 MEMB     157      OSM      C2F      CTL2    -0.700000E-01   12.0110           0
     18112 MEMB     157      OSM      H2F      HAL2     0.600000E-01   1.00800           0
     18113 MEMB     157      OSM      H2G      HAL2     0.600000E-01   1.00800           0
     18114 MEMB     157      OSM      C3F      CTL2    -0.180000       12.0110           0
     18115 MEMB     157      OSM      H3F      HAL2     0.900000E-01   1.00800           0
     18116 MEMB     157      OSM      H3G      HAL2     0.900000E-01   1.00800           0
     18117 MEMB     157      OSM      C4F      CTL2    -0.180000       12.0110           0
     18118 MEMB     157      OSM      H4F      HAL2     0.900000E-01   1.00800           0
     18119 MEMB     157      OSM      H4G      HAL2     0.900000E-01   1.00800           0
     18120 MEMB     157      OSM      C5F      CTL2    -0.180000       12.0110           0
     18121 MEMB     157      OSM      H5F      HAL2     0.900000E-01   1.00800           0
     18122 MEMB     157      OSM      H5G      HAL2     0.900000E-01   1.00800           0
     18123 MEMB     157      OSM      C6F      CTL2    -0.180000       12.0110           0
     18124 MEMB     157      OSM      H6F      HAL2     0.900000E-01   1.00800           0
     18125 MEMB     157      OSM      H6G      HAL2     0.900000E-01   1.00800           0
     18126 MEMB     157      OSM      C7F      CTL2    -0.180000       12.0110           0
     18127 MEMB     157      OSM      H7F      HAL2     0.900000E-01   1.00800           0
     18128 MEMB     157      OSM      H7G      HAL2     0.900000E-01   1.00800           0
     18129 MEMB     157      OSM      C8F      CTL2    -0.180000       12.0110           0
     18130 MEMB     157      OSM      H8F      HAL2     0.900000E-01   1.00800           0
     18131 MEMB     157      OSM      H8G      HAL2     0.900000E-01   1.00800           0
     18132 MEMB     157      OSM      C9F      CEL1    -0.150000       12.0110           0
     18133 MEMB     157      OSM      H9F      HEL1     0.150000       1.00800           0
     18134 MEMB     157      OSM      C10F     CEL1    -0.150000       12.0110           0
     18135 MEMB     157      OSM      H10F     HEL1     0.150000       1.00800           0
     18136 MEMB     157      OSM      C11F     CTL2    -0.180000       12.0110           0
     18137 MEMB     157      OSM      H11F     HAL2     0.900000E-01   1.00800           0
     18138 MEMB     157      OSM      H11G     HAL2     0.900000E-01   1.00800           0
     18139 MEMB     157      OSM      C12F     CTL2    -0.180000       12.0110           0
     18140 MEMB     157      OSM      H12F     HAL2     0.900000E-01   1.00800           0
     18141 MEMB     157      OSM      H12G     HAL2     0.900000E-01   1.00800           0
     18142 MEMB     157      OSM      C13F     CTL2    -0.180000       12.0110           0
     18143 MEMB     157      OSM      H13F     HAL2     0.900000E-01   1.00800           0
     18144 MEMB     157      OSM      H13G     HAL2     0.900000E-01   1.00800           0
     18145 MEMB     157      OSM      C14F     CTL2    -0.180000       12.0110           0
     18146 MEMB     157      OSM      H14F     HAL2     0.900000E-01   1.00800           0
     18147 MEMB     157      OSM      H14G     HAL2     0.900000E-01   1.00800           0
     18148 MEMB     157      OSM      C15F     CTL2    -0.180000       12.0110           0
     18149 MEMB     157      OSM      H15F     HAL2     0.900000E-01   1.00800           0
     18150 MEMB     157      OSM      H15G     HAL2     0.900000E-01   1.00800           0
     18151 MEMB     157      OSM      C16F     CTL2    -0.180000       12.0110           0
     18152 MEMB     157      OSM      H16F     HAL2     0.900000E-01   1.00800           0
     18153 MEMB     157      OSM      H16G     HAL2     0.900000E-01   1.00800           0
     18154 MEMB     157      OSM      C17F     CTL2    -0.180000       12.0110           0
     18155 MEMB     157      OSM      H17F     HAL2     0.900000E-01   1.00800           0
     18156 MEMB     157      OSM      H17G     HAL2     0.900000E-01   1.00800           0
     18157 MEMB     157      OSM      C18F     CTL3    -0.270000       12.0110           0
     18158 MEMB     157      OSM      H18F     HAL3     0.900000E-01   1.00800           0
     18159 MEMB     157      OSM      H18G     HAL3     0.900000E-01   1.00800           0
     18160 MEMB     157      OSM      H18H     HAL3     0.900000E-01   1.00800           0
     18161 MEMB     158      SAPC     N        NTL     -0.600000       14.0070           0
     18162 MEMB     158      SAPC     C12      CTL2    -0.100000       12.0110           0
     18163 MEMB     158      SAPC     H12A     HL       0.250000       1.00800           0
     18164 MEMB     158      SAPC     H12B     HL       0.250000       1.00800           0
     18165 MEMB     158      SAPC     C13      CTL5    -0.350000       12.0110           0
     18166 MEMB     158      SAPC     H13A     HL       0.250000       1.00800           0
     18167 MEMB     158      SAPC     H13B     HL       0.250000       1.00800           0
     18168 MEMB     158      SAPC     H13C     HL       0.250000       1.00800           0
     18169 MEMB     158      SAPC     C14      CTL5    -0.350000       12.0110           0
     18170 MEMB     158      SAPC     H14A     HL       0.250000       1.00800           0
     18171 MEMB     158      SAPC     H14B     HL       0.250000       1.00800           0
     18172 MEMB     158      SAPC     H14C     HL       0.250000       1.00800           0
     18173 MEMB     158      SAPC     C15      CTL5    -0.350000       12.0110           0
     18174 MEMB     158      SAPC     H15A     HL       0.250000       1.00800           0
     18175 MEMB     158      SAPC     H15B     HL       0.250000       1.00800           0
     18176 MEMB     158      SAPC     H15C     HL       0.250000       1.00800           0
     18177 MEMB     158      SAPC     C11      CTL2    -0.800000E-01   12.0110           0
     18178 MEMB     158      SAPC     H11A     HAL2     0.900000E-01   1.00800           0
     18179 MEMB     158      SAPC     H11B     HAL2     0.900000E-01   1.00800           0
     18180 MEMB     158      SAPC     P        PL        1.50000       30.9740           0
     18181 MEMB     158      SAPC     O13      O2L     -0.780000       15.9994           0
     18182 MEMB     158      SAPC     O14      O2L     -0.780000       15.9994           0
     18183 MEMB     158      SAPC     O12      OSLP    -0.570000       15.9994           0
     18184 MEMB     158      SAPC     O11      OSLP    -0.570000       15.9994           0
     18185 MEMB     158      SAPC     C1       CTL2    -0.800000E-01   12.0110           0
     18186 MEMB     158      SAPC     HA       HAL2     0.900000E-01   1.00800           0
     18187 MEMB     158      SAPC     HB       HAL2     0.900000E-01   1.00800           0
     18188 MEMB     158      SAPC     C2       CTL1     0.170000       12.0110           0
     18189 MEMB     158      SAPC     HS       HAL1     0.900000E-01   1.00800           0
     18190 MEMB     158      SAPC     O21      OSL     -0.490000       15.9994           0
     18191 MEMB     158      SAPC     C21      CL       0.900000       12.0110           0
     18192 MEMB     158      SAPC     O22      OBL     -0.630000       15.9994           0
     18193 MEMB     158      SAPC     C22      CTL2    -0.220000       12.0110           0
     18194 MEMB     158      SAPC     H2R      HAL2     0.900000E-01   1.00800           0
     18195 MEMB     158      SAPC     H2S      HAL2     0.900000E-01   1.00800           0
     18196 MEMB     158      SAPC     C3       CTL2     0.800000E-01   12.0110           0
     18197 MEMB     158      SAPC     HX       HAL2     0.900000E-01   1.00800           0
     18198 MEMB     158      SAPC     HY       HAL2     0.900000E-01   1.00800           0
     18199 MEMB     158      SAPC     O31      OSL     -0.490000       15.9994           0
     18200 MEMB     158      SAPC     C31      CL       0.900000       12.0110           0
     18201 MEMB     158      SAPC     O32      OBL     -0.630000       15.9994           0
     18202 MEMB     158      SAPC     C32      CTL2    -0.220000       12.0110           0
     18203 MEMB     158      SAPC     H2X      HAL2     0.900000E-01   1.00800           0
     18204 MEMB     158      SAPC     H2Y      HAL2     0.900000E-01   1.00800           0
     18205 MEMB     158      SAPC     C23      CTL2    -0.180000       12.0110           0
     18206 MEMB     158      SAPC     H3R      HAL2     0.900000E-01   1.00800           0
     18207 MEMB     158      SAPC     H3S      HAL2     0.900000E-01   1.00800           0
     18208 MEMB     158      SAPC     C24      CTL2    -0.180000       12.0110           0
     18209 MEMB     158      SAPC     H4R      HAL2     0.900000E-01   1.00800           0
     18210 MEMB     158      SAPC     H4S      HAL2     0.900000E-01   1.00800           0
     18211 MEMB     158      SAPC     C25      CEL1    -0.150000       12.0110           0
     18212 MEMB     158      SAPC     H5R      HEL1     0.150000       1.00800           0
     18213 MEMB     158      SAPC     C26      CEL1    -0.150000       12.0110           0
     18214 MEMB     158      SAPC     H6R      HEL1     0.150000       1.00800           0
     18215 MEMB     158      SAPC     C27      CTL2    -0.180000       12.0110           0
     18216 MEMB     158      SAPC     H7R      HAL2     0.900000E-01   1.00800           0
     18217 MEMB     158      SAPC     H7S      HAL2     0.900000E-01   1.00800           0
     18218 MEMB     158      SAPC     C28      CEL1    -0.150000       12.0110           0
     18219 MEMB     158      SAPC     H8R      HEL1     0.150000       1.00800           0
     18220 MEMB     158      SAPC     C29      CEL1    -0.150000       12.0110           0
     18221 MEMB     158      SAPC     H9R      HEL1     0.150000       1.00800           0
     18222 MEMB     158      SAPC     C210     CTL2    -0.180000       12.0110           0
     18223 MEMB     158      SAPC     H10R     HAL2     0.900000E-01   1.00800           0
     18224 MEMB     158      SAPC     H10S     HAL2     0.900000E-01   1.00800           0
     18225 MEMB     158      SAPC     C211     CEL1    -0.150000       12.0110           0
     18226 MEMB     158      SAPC     H11R     HEL1     0.150000       1.00800           0
     18227 MEMB     158      SAPC     C212     CEL1    -0.150000       12.0110           0
     18228 MEMB     158      SAPC     H12R     HEL1     0.150000       1.00800           0
     18229 MEMB     158      SAPC     C213     CTL2    -0.180000       12.0110           0
     18230 MEMB     158      SAPC     H13R     HAL2     0.900000E-01   1.00800           0
     18231 MEMB     158      SAPC     H13S     HAL2     0.900000E-01   1.00800           0
     18232 MEMB     158      SAPC     C214     CEL1    -0.150000       12.0110           0
     18233 MEMB     158      SAPC     H14R     HEL1     0.150000       1.00800           0
     18234 MEMB     158      SAPC     C215     CEL1    -0.150000       12.0110           0
     18235 MEMB     158      SAPC     H15R     HEL1     0.150000       1.00800           0
     18236 MEMB     158      SAPC     C216     CTL2    -0.180000       12.0110           0
     18237 MEMB     158      SAPC     H16R     HAL2     0.900000E-01   1.00800           0
     18238 MEMB     158      SAPC     H16S     HAL2     0.900000E-01   1.00800           0
     18239 MEMB     158      SAPC     C217     CTL2    -0.180000       12.0110           0
     18240 MEMB     158      SAPC     H17R     HAL2     0.900000E-01   1.00800           0
     18241 MEMB     158      SAPC     H17S     HAL2     0.900000E-01   1.00800           0
     18242 MEMB     158      SAPC     C218     CTL2    -0.270000       12.0110           0
     18243 MEMB     158      SAPC     H18R     HAL2     0.900000E-01   1.00800           0
     18244 MEMB     158      SAPC     H18S     HAL2     0.900000E-01   1.00800           0
     18245 MEMB     158      SAPC     C219     CTL2    -0.180000       12.0110           0
     18246 MEMB     158      SAPC     H19R     HAL2     0.900000E-01   1.00800           0
     18247 MEMB     158      SAPC     H19S     HAL2     0.900000E-01   1.00800           0
     18248 MEMB     158      SAPC     C220     CTL3    -0.180000       12.0110           0
     18249 MEMB     158      SAPC     H20R     HAL3     0.900000E-01   1.00800           0
     18250 MEMB     158      SAPC     H20S     HAL3     0.900000E-01   1.00800           0
     18251 MEMB     158      SAPC     H20T     HAL3     0.900000E-01   1.00800           0
     18252 MEMB     158      SAPC     C33      CTL2    -0.180000       12.0110           0
     18253 MEMB     158      SAPC     H3X      HAL2     0.900000E-01   1.00800           0
     18254 MEMB     158      SAPC     H3Y      HAL2     0.900000E-01   1.00800           0
     18255 MEMB     158      SAPC     C34      CTL2    -0.180000       12.0110           0
     18256 MEMB     158      SAPC     H4X      HAL2     0.900000E-01   1.00800           0
     18257 MEMB     158      SAPC     H4Y      HAL2     0.900000E-01   1.00800           0
     18258 MEMB     158      SAPC     C35      CTL2    -0.180000       12.0110           0
     18259 MEMB     158      SAPC     H5X      HAL2     0.900000E-01   1.00800           0
     18260 MEMB     158      SAPC     H5Y      HAL2     0.900000E-01   1.00800           0
     18261 MEMB     158      SAPC     C36      CTL2    -0.180000       12.0110           0
     18262 MEMB     158      SAPC     H6X      HAL2     0.900000E-01   1.00800           0
     18263 MEMB     158      SAPC     H6Y      HAL2     0.900000E-01   1.00800           0
     18264 MEMB     158      SAPC     C37      CTL2    -0.180000       12.0110           0
     18265 MEMB     158      SAPC     H7X      HAL2     0.900000E-01   1.00800           0
     18266 MEMB     158      SAPC     H7Y      HAL2     0.900000E-01   1.00800           0
     18267 MEMB     158      SAPC     C38      CTL2    -0.180000       12.0110           0
     18268 MEMB     158      SAPC     H8X      HAL2     0.900000E-01   1.00800           0
     18269 MEMB     158      SAPC     H8Y      HAL2     0.900000E-01   1.00800           0
     18270 MEMB     158      SAPC     C39      CTL2    -0.180000       12.0110           0
     18271 MEMB     158      SAPC     H9X      HAL2     0.900000E-01   1.00800           0
     18272 MEMB     158      SAPC     H9Y      HAL2     0.900000E-01   1.00800           0
     18273 MEMB     158      SAPC     C310     CTL2    -0.180000       12.0110           0
     18274 MEMB     158      SAPC     H10X     HAL2     0.900000E-01   1.00800           0
     18275 MEMB     158      SAPC     H10Y     HAL2     0.900000E-01   1.00800           0
     18276 MEMB     158      SAPC     C311     CTL2    -0.180000       12.0110           0
     18277 MEMB     158      SAPC     H11X     HAL2     0.900000E-01   1.00800           0
     18278 MEMB     158      SAPC     H11Y     HAL2     0.900000E-01   1.00800           0
     18279 MEMB     158      SAPC     C312     CTL2    -0.180000       12.0110           0
     18280 MEMB     158      SAPC     H12X     HAL2     0.900000E-01   1.00800           0
     18281 MEMB     158      SAPC     H12Y     HAL2     0.900000E-01   1.00800           0
     18282 MEMB     158      SAPC     C313     CTL2    -0.180000       12.0110           0
     18283 MEMB     158      SAPC     H13X     HAL2     0.900000E-01   1.00800           0
     18284 MEMB     158      SAPC     H13Y     HAL2     0.900000E-01   1.00800           0
     18285 MEMB     158      SAPC     C314     CTL2    -0.180000       12.0110           0
     18286 MEMB     158      SAPC     H14X     HAL2     0.900000E-01   1.00800           0
     18287 MEMB     158      SAPC     H14Y     HAL2     0.900000E-01   1.00800           0
     18288 MEMB     158      SAPC     C315     CTL2    -0.180000       12.0110           0
     18289 MEMB     158      SAPC     H15X     HAL2     0.900000E-01   1.00800           0
     18290 MEMB     158      SAPC     H15Y     HAL2     0.900000E-01   1.00800           0
     18291 MEMB     158      SAPC     C316     CTL2    -0.180000       12.0110           0
     18292 MEMB     158      SAPC     H16X     HAL2     0.900000E-01   1.00800           0
     18293 MEMB     158      SAPC     H16Y     HAL2     0.900000E-01   1.00800           0
     18294 MEMB     158      SAPC     C317     CTL2    -0.180000       12.0110           0
     18295 MEMB     158      SAPC     H17X     HAL2     0.900000E-01   1.00800           0
     18296 MEMB     158      SAPC     H17Y     HAL2     0.900000E-01   1.00800           0
     18297 MEMB     158      SAPC     C318     CTL3    -0.270000       12.0110           0
     18298 MEMB     158      SAPC     H18X     HAL3     0.900000E-01   1.00800           0
     18299 MEMB     158      SAPC     H18Y     HAL3     0.900000E-01   1.00800           0
     18300 MEMB     158      SAPC     H18Z     HAL3     0.900000E-01   1.00800           0
     18301 MEMB     159      SAPE     N        NH3L    -0.300000       14.0070           0
     18302 MEMB     159      SAPE     HN1      HCL      0.330000       1.00800           0
     18303 MEMB     159      SAPE     HN2      HCL      0.330000       1.00800           0
     18304 MEMB     159      SAPE     HN3      HCL      0.330000       1.00800           0
     18305 MEMB     159      SAPE     C12      CTL2     0.130000       12.0110           0
     18306 MEMB     159      SAPE     H12A     HAL2     0.900000E-01   1.00800           0
     18307 MEMB     159      SAPE     H12B     HAL2     0.900000E-01   1.00800           0
     18308 MEMB     159      SAPE     C11      CTL2    -0.800000E-01   12.0110           0
     18309 MEMB     159      SAPE     H11A     HAL2     0.900000E-01   1.00800           0
     18310 MEMB     159      SAPE     H11B     HAL2     0.900000E-01   1.00800           0
     18311 MEMB     159      SAPE     P        PL        1.50000       30.9740           0
     18312 MEMB     159      SAPE     O13      O2L     -0.780000       15.9994           0
     18313 MEMB     159      SAPE     O14      O2L     -0.780000       15.9994           0
     18314 MEMB     159      SAPE     O12      OSLP    -0.570000       15.9994           0
     18315 MEMB     159      SAPE     O11      OSLP    -0.570000       15.9994           0
     18316 MEMB     159      SAPE     C1       CTL2    -0.800000E-01   12.0110           0
     18317 MEMB     159      SAPE     HA       HAL2     0.900000E-01   1.00800           0
     18318 MEMB     159      SAPE     HB       HAL2     0.900000E-01   1.00800           0
     18319 MEMB     159      SAPE     C2       CTL1     0.170000       12.0110           0
     18320 MEMB     159      SAPE     HS       HAL1     0.900000E-01   1.00800           0
     18321 MEMB     159      SAPE     O21      OSL     -0.490000       15.9994           0
     18322 MEMB     159      SAPE     C21      CL       0.900000       12.0110           0
     18323 MEMB     159      SAPE     O22      OBL     -0.630000       15.9994           0
     18324 MEMB     159      SAPE     C22      CTL2    -0.220000       12.0110           0
     18325 MEMB     159      SAPE     H2R      HAL2     0.900000E-01   1.00800           0
     18326 MEMB     159      SAPE     H2S      HAL2     0.900000E-01   1.00800           0
     18327 MEMB     159      SAPE     C3       CTL2     0.800000E-01   12.0110           0
     18328 MEMB     159      SAPE     HX       HAL2     0.900000E-01   1.00800           0
     18329 MEMB     159      SAPE     HY       HAL2     0.900000E-01   1.00800           0
     18330 MEMB     159      SAPE     O31      OSL     -0.490000       15.9994           0
     18331 MEMB     159      SAPE     C31      CL       0.900000       12.0110           0
     18332 MEMB     159      SAPE     O32      OBL     -0.630000       15.9994           0
     18333 MEMB     159      SAPE     C32      CTL2    -0.220000       12.0110           0
     18334 MEMB     159      SAPE     H2X      HAL2     0.900000E-01   1.00800           0
     18335 MEMB     159      SAPE     H2Y      HAL2     0.900000E-01   1.00800           0
     18336 MEMB     159      SAPE     C23      CTL2    -0.180000       12.0110           0
     18337 MEMB     159      SAPE     H3R      HAL2     0.900000E-01   1.00800           0
     18338 MEMB     159      SAPE     H3S      HAL2     0.900000E-01   1.00800           0
     18339 MEMB     159      SAPE     C24      CTL2    -0.180000       12.0110           0
     18340 MEMB     159      SAPE     H4R      HAL2     0.900000E-01   1.00800           0
     18341 MEMB     159      SAPE     H4S      HAL2     0.900000E-01   1.00800           0
     18342 MEMB     159      SAPE     C25      CEL1    -0.150000       12.0110           0
     18343 MEMB     159      SAPE     H5R      HEL1     0.150000       1.00800           0
     18344 MEMB     159      SAPE     C26      CEL1    -0.150000       12.0110           0
     18345 MEMB     159      SAPE     H6R      HEL1     0.150000       1.00800           0
     18346 MEMB     159      SAPE     C27      CTL2    -0.180000       12.0110           0
     18347 MEMB     159      SAPE     H7R      HAL2     0.900000E-01   1.00800           0
     18348 MEMB     159      SAPE     H7S      HAL2     0.900000E-01   1.00800           0
     18349 MEMB     159      SAPE     C28      CEL1    -0.150000       12.0110           0
     18350 MEMB     159      SAPE     H8R      HEL1     0.150000       1.00800           0
     18351 MEMB     159      SAPE     C29      CEL1    -0.150000       12.0110           0
     18352 MEMB     159      SAPE     H9R      HEL1     0.150000       1.00800           0
     18353 MEMB     159      SAPE     C210     CTL2    -0.180000       12.0110           0
     18354 MEMB     159      SAPE     H10R     HAL2     0.900000E-01   1.00800           0
     18355 MEMB     159      SAPE     H10S     HAL2     0.900000E-01   1.00800           0
     18356 MEMB     159      SAPE     C211     CEL1    -0.150000       12.0110           0
     18357 MEMB     159      SAPE     H11R     HEL1     0.150000       1.00800           0
     18358 MEMB     159      SAPE     C212     CEL1    -0.150000       12.0110           0
     18359 MEMB     159      SAPE     H12R     HEL1     0.150000       1.00800           0
     18360 MEMB     159      SAPE     C213     CTL2    -0.180000       12.0110           0
     18361 MEMB     159      SAPE     H13R     HAL2     0.900000E-01   1.00800           0
     18362 MEMB     159      SAPE     H13S     HAL2     0.900000E-01   1.00800           0
     18363 MEMB     159      SAPE     C214     CEL1    -0.150000       12.0110           0
     18364 MEMB     159      SAPE     H14R     HEL1     0.150000       1.00800           0
     18365 MEMB     159      SAPE     C215     CEL1    -0.150000       12.0110           0
     18366 MEMB     159      SAPE     H15R     HEL1     0.150000       1.00800           0
     18367 MEMB     159      SAPE     C216     CTL2    -0.180000       12.0110           0
     18368 MEMB     159      SAPE     H16R     HAL2     0.900000E-01   1.00800           0
     18369 MEMB     159      SAPE     H16S     HAL2     0.900000E-01   1.00800           0
     18370 MEMB     159      SAPE     C217     CTL2    -0.180000       12.0110           0
     18371 MEMB     159      SAPE     H17R     HAL2     0.900000E-01   1.00800           0
     18372 MEMB     159      SAPE     H17S     HAL2     0.900000E-01   1.00800           0
     18373 MEMB     159      SAPE     C218     CTL2    -0.180000       12.0110           0
     18374 MEMB     159      SAPE     H18R     HAL2     0.900000E-01   1.00800           0
     18375 MEMB     159      SAPE     H18S     HAL2     0.900000E-01   1.00800           0
     18376 MEMB     159      SAPE     C219     CTL2    -0.180000       12.0110           0
     18377 MEMB     159      SAPE     H19R     HAL2     0.900000E-01   1.00800           0
     18378 MEMB     159      SAPE     H19S     HAL2     0.900000E-01   1.00800           0
     18379 MEMB     159      SAPE     C220     CTL3    -0.270000       12.0110           0
     18380 MEMB     159      SAPE     H20R     HAL3     0.900000E-01   1.00800           0
     18381 MEMB     159      SAPE     H20S     HAL3     0.900000E-01   1.00800           0
     18382 MEMB     159      SAPE     H20T     HAL3     0.900000E-01   1.00800           0
     18383 MEMB     159      SAPE     C33      CTL2    -0.180000       12.0110           0
     18384 MEMB     159      SAPE     H3X      HAL2     0.900000E-01   1.00800           0
     18385 MEMB     159      SAPE     H3Y      HAL2     0.900000E-01   1.00800           0
     18386 MEMB     159      SAPE     C34      CTL2    -0.180000       12.0110           0
     18387 MEMB     159      SAPE     H4X      HAL2     0.900000E-01   1.00800           0
     18388 MEMB     159      SAPE     H4Y      HAL2     0.900000E-01   1.00800           0
     18389 MEMB     159      SAPE     C35      CTL2    -0.180000       12.0110           0
     18390 MEMB     159      SAPE     H5X      HAL2     0.900000E-01   1.00800           0
     18391 MEMB     159      SAPE     H5Y      HAL2     0.900000E-01   1.00800           0
     18392 MEMB     159      SAPE     C36      CTL2    -0.180000       12.0110           0
     18393 MEMB     159      SAPE     H6X      HAL2     0.900000E-01   1.00800           0
     18394 MEMB     159      SAPE     H6Y      HAL2     0.900000E-01   1.00800           0
     18395 MEMB     159      SAPE     C37      CTL2    -0.180000       12.0110           0
     18396 MEMB     159      SAPE     H7X      HAL2     0.900000E-01   1.00800           0
     18397 MEMB     159      SAPE     H7Y      HAL2     0.900000E-01   1.00800           0
     18398 MEMB     159      SAPE     C38      CTL2    -0.180000       12.0110           0
     18399 MEMB     159      SAPE     H8X      HAL2     0.900000E-01   1.00800           0
     18400 MEMB     159      SAPE     H8Y      HAL2     0.900000E-01   1.00800           0
     18401 MEMB     159      SAPE     C39      CTL2    -0.180000       12.0110           0
     18402 MEMB     159      SAPE     H9X      HAL2     0.900000E-01   1.00800           0
     18403 MEMB     159      SAPE     H9Y      HAL2     0.900000E-01   1.00800           0
     18404 MEMB     159      SAPE     C310     CTL2    -0.180000       12.0110           0
     18405 MEMB     159      SAPE     H10X     HAL2     0.900000E-01   1.00800           0
     18406 MEMB     159      SAPE     H10Y     HAL2     0.900000E-01   1.00800           0
     18407 MEMB     159      SAPE     C311     CTL2    -0.180000       12.0110           0
     18408 MEMB     159      SAPE     H11X     HAL2     0.900000E-01   1.00800           0
     18409 MEMB     159      SAPE     H11Y     HAL2     0.900000E-01   1.00800           0
     18410 MEMB     159      SAPE     C312     CTL2    -0.180000       12.0110           0
     18411 MEMB     159      SAPE     H12X     HAL2     0.900000E-01   1.00800           0
     18412 MEMB     159      SAPE     H12Y     HAL2     0.900000E-01   1.00800           0
     18413 MEMB     159      SAPE     C313     CTL2    -0.180000       12.0110           0
     18414 MEMB     159      SAPE     H13X     HAL2     0.900000E-01   1.00800           0
     18415 MEMB     159      SAPE     H13Y     HAL2     0.900000E-01   1.00800           0
     18416 MEMB     159      SAPE     C314     CTL2    -0.180000       12.0110           0
     18417 MEMB     159      SAPE     H14X     HAL2     0.900000E-01   1.00800           0
     18418 MEMB     159      SAPE     H14Y     HAL2     0.900000E-01   1.00800           0
     18419 MEMB     159      SAPE     C315     CTL2    -0.180000       12.0110           0
     18420 MEMB     159      SAPE     H15X     HAL2     0.900000E-01   1.00800           0
     18421 MEMB     159      SAPE     H15Y     HAL2     0.900000E-01   1.00800           0
     18422 MEMB     159      SAPE     C316     CTL2    -0.180000       12.0110           0
     18423 MEMB     159      SAPE     H16X     HAL2     0.900000E-01   1.00800           0
     18424 MEMB     159      SAPE     H16Y     HAL2     0.900000E-01   1.00800           0
     18425 MEMB     159      SAPE     C317     CTL2    -0.180000       12.0110           0
     18426 MEMB     159      SAPE     H17X     HAL2     0.900000E-01   1.00800           0
     18427 MEMB     159      SAPE     H17Y     HAL2     0.900000E-01   1.00800           0
     18428 MEMB     159      SAPE     C318     CTL3    -0.270000       12.0110           0
     18429 MEMB     159      SAPE     H18X     HAL3     0.900000E-01   1.00800           0
     18430 MEMB     159      SAPE     H18Y     HAL3     0.900000E-01   1.00800           0
     18431 MEMB     159      SAPE     H18Z     HAL3     0.900000E-01   1.00800           0
     18432 MEMB     160      CHL1     C3       CRL1     0.140000       12.0110           0
     18433 MEMB     160      CHL1     H3       HGA1     0.900000E-01   1.00800           0
     18434 MEMB     160      CHL1     O3       OHL     -0.660000       15.9994           0
     18435 MEMB     160      CHL1     H3'      HOL      0.430000       1.00800           0
     18436 MEMB     160      CHL1     C4       CRL2    -0.180000       12.0110           0
     18437 MEMB     160      CHL1     H4A      HGA2     0.900000E-01   1.00800           0
     18438 MEMB     160      CHL1     H4B      HGA2     0.900000E-01   1.00800           0
     18439 MEMB     160      CHL1     C5       CEL1      0.00000       12.0110           0
     18440 MEMB     160      CHL1     C6       CEL1    -0.150000       12.0110           0
     18441 MEMB     160      CHL1     H6       HEL1     0.150000       1.00800           0
     18442 MEMB     160      CHL1     C7       CRL2    -0.180000       12.0110           0
     18443 MEMB     160      CHL1     H7A      HGA2     0.900000E-01   1.00800           0
     18444 MEMB     160      CHL1     H7B      HGA2     0.900000E-01   1.00800           0
     18445 MEMB     160      CHL1     C8       CRL1    -0.900000E-01   12.0110           0
     18446 MEMB     160      CHL1     H8       HGA1     0.900000E-01   1.00800           0
     18447 MEMB     160      CHL1     C14      CRL1    -0.900000E-01   12.0110           0
     18448 MEMB     160      CHL1     H14      HGA1     0.900000E-01   1.00800           0
     18449 MEMB     160      CHL1     C15      CRL2    -0.180000       12.0110           0
     18450 MEMB     160      CHL1     H15A     HGA2     0.900000E-01   1.00800           0
     18451 MEMB     160      CHL1     H15B     HGA2     0.900000E-01   1.00800           0
     18452 MEMB     160      CHL1     C16      CRL2    -0.180000       12.0110           0
     18453 MEMB     160      CHL1     H16A     HGA2     0.900000E-01   1.00800           0
     18454 MEMB     160      CHL1     H16B     HGA2     0.900000E-01   1.00800           0
     18455 MEMB     160      CHL1     C17      CRL1    -0.900000E-01   12.0110           0
     18456 MEMB     160      CHL1     H17      HGA1     0.900000E-01   1.00800           0
     18457 MEMB     160      CHL1     C13      CRL1      0.00000       12.0110           0
     18458 MEMB     160      CHL1     C18      CTL3    -0.270000       12.0110           0
     18459 MEMB     160      CHL1     H18A     HAL3     0.900000E-01   1.00800           0
     18460 MEMB     160      CHL1     H18B     HAL3     0.900000E-01   1.00800           0
     18461 MEMB     160      CHL1     H18C     HAL3     0.900000E-01   1.00800           0
     18462 MEMB     160      CHL1     C12      CRL2    -0.180000       12.0110           0
     18463 MEMB     160      CHL1     H12A     HGA2     0.900000E-01   1.00800           0
     18464 MEMB     160      CHL1     H12B     HGA2     0.900000E-01   1.00800           0
     18465 MEMB     160      CHL1     C11      CRL2    -0.180000       12.0110           0
     18466 MEMB     160      CHL1     H11A     HGA2     0.900000E-01   1.00800           0
     18467 MEMB     160      CHL1     H11B     HGA2     0.900000E-01   1.00800           0
     18468 MEMB     160      CHL1     C9       CRL1    -0.900000E-01   12.0110           0
     18469 MEMB     160      CHL1     H9       HGA1     0.900000E-01   1.00800           0
     18470 MEMB     160      CHL1     C10      CRL1      0.00000       12.0110           0
     18471 MEMB     160      CHL1     C19      CTL3    -0.270000       12.0110           0
     18472 MEMB     160      CHL1     H19A     HAL3     0.900000E-01   1.00800           0
     18473 MEMB     160      CHL1     H19B     HAL3     0.900000E-01   1.00800           0
     18474 MEMB     160      CHL1     H19C     HAL3     0.900000E-01   1.00800           0
     18475 MEMB     160      CHL1     C1       CRL2    -0.180000       12.0110           0
     18476 MEMB     160      CHL1     H1A      HGA2     0.900000E-01   1.00800           0
     18477 MEMB     160      CHL1     H1B      HGA2     0.900000E-01   1.00800           0
     18478 MEMB     160      CHL1     C2       CRL2    -0.180000       12.0110           0
     18479 MEMB     160      CHL1     H2A      HGA2     0.900000E-01   1.00800           0
     18480 MEMB     160      CHL1     H2B      HGA2     0.900000E-01   1.00800           0
     18481 MEMB     160      CHL1     C20      CTL1    -0.900000E-01   12.0110           0
     18482 MEMB     160      CHL1     H20      HAL1     0.900000E-01   1.00800           0
     18483 MEMB     160      CHL1     C21      CTL3    -0.270000       12.0110           0
     18484 MEMB     160      CHL1     H21A     HAL3     0.900000E-01   1.00800           0
     18485 MEMB     160      CHL1     H21B     HAL3     0.900000E-01   1.00800           0
     18486 MEMB     160      CHL1     H21C     HAL3     0.900000E-01   1.00800           0
     18487 MEMB     160      CHL1     C22      CTL2    -0.180000       12.0110           0
     18488 MEMB     160      CHL1     H22A     HAL2     0.900000E-01   1.00800           0
     18489 MEMB     160      CHL1     H22B     HAL2     0.900000E-01   1.00800           0
     18490 MEMB     160      CHL1     C23      CTL2    -0.180000       12.0110           0
     18491 MEMB     160      CHL1     H23A     HAL2     0.900000E-01   1.00800           0
     18492 MEMB     160      CHL1     H23B     HAL2     0.900000E-01   1.00800           0
     18493 MEMB     160      CHL1     C24      CTL2    -0.180000       12.0110           0
     18494 MEMB     160      CHL1     H24A     HAL2     0.900000E-01   1.00800           0
     18495 MEMB     160      CHL1     H24B     HAL2     0.900000E-01   1.00800           0
     18496 MEMB     160      CHL1     C25      CTL1    -0.900000E-01   12.0110           0
     18497 MEMB     160      CHL1     H25      HAL1     0.900000E-01   1.00800           0
     18498 MEMB     160      CHL1     C26      CTL3    -0.270000       12.0110           0
     18499 MEMB     160      CHL1     H26A     HAL3     0.900000E-01   1.00800           0
     18500 MEMB     160      CHL1     H26B     HAL3     0.900000E-01   1.00800           0
     18501 MEMB     160      CHL1     H26C     HAL3     0.900000E-01   1.00800           0
     18502 MEMB     160      CHL1     C27      CTL3    -0.270000       12.0110           0
     18503 MEMB     160      CHL1     H27A     HAL3     0.900000E-01   1.00800           0
     18504 MEMB     160      CHL1     H27B     HAL3     0.900000E-01   1.00800           0
     18505 MEMB     160      CHL1     H27C     HAL3     0.900000E-01   1.00800           0
     18506 MEMB     161      SAPE     N        NH3L    -0.300000       14.0070           0
     18507 MEMB     161      SAPE     HN1      HCL      0.330000       1.00800           0
     18508 MEMB     161      SAPE     HN2      HCL      0.330000       1.00800           0
     18509 MEMB     161      SAPE     HN3      HCL      0.330000       1.00800           0
     18510 MEMB     161      SAPE     C12      CTL2     0.130000       12.0110           0
     18511 MEMB     161      SAPE     H12A     HAL2     0.900000E-01   1.00800           0
     18512 MEMB     161      SAPE     H12B     HAL2     0.900000E-01   1.00800           0
     18513 MEMB     161      SAPE     C11      CTL2    -0.800000E-01   12.0110           0
     18514 MEMB     161      SAPE     H11A     HAL2     0.900000E-01   1.00800           0
     18515 MEMB     161      SAPE     H11B     HAL2     0.900000E-01   1.00800           0
     18516 MEMB     161      SAPE     P        PL        1.50000       30.9740           0
     18517 MEMB     161      SAPE     O13      O2L     -0.780000       15.9994           0
     18518 MEMB     161      SAPE     O14      O2L     -0.780000       15.9994           0
     18519 MEMB     161      SAPE     O12      OSLP    -0.570000       15.9994           0
     18520 MEMB     161      SAPE     O11      OSLP    -0.570000       15.9994           0
     18521 MEMB     161      SAPE     C1       CTL2    -0.800000E-01   12.0110           0
     18522 MEMB     161      SAPE     HA       HAL2     0.900000E-01   1.00800           0
     18523 MEMB     161      SAPE     HB       HAL2     0.900000E-01   1.00800           0
     18524 MEMB     161      SAPE     C2       CTL1     0.170000       12.0110           0
     18525 MEMB     161      SAPE     HS       HAL1     0.900000E-01   1.00800           0
     18526 MEMB     161      SAPE     O21      OSL     -0.490000       15.9994           0
     18527 MEMB     161      SAPE     C21      CL       0.900000       12.0110           0
     18528 MEMB     161      SAPE     O22      OBL     -0.630000       15.9994           0
     18529 MEMB     161      SAPE     C22      CTL2    -0.220000       12.0110           0
     18530 MEMB     161      SAPE     H2R      HAL2     0.900000E-01   1.00800           0
     18531 MEMB     161      SAPE     H2S      HAL2     0.900000E-01   1.00800           0
     18532 MEMB     161      SAPE     C3       CTL2     0.800000E-01   12.0110           0
     18533 MEMB     161      SAPE     HX       HAL2     0.900000E-01   1.00800           0
     18534 MEMB     161      SAPE     HY       HAL2     0.900000E-01   1.00800           0
     18535 MEMB     161      SAPE     O31      OSL     -0.490000       15.9994           0
     18536 MEMB     161      SAPE     C31      CL       0.900000       12.0110           0
     18537 MEMB     161      SAPE     O32      OBL     -0.630000       15.9994           0
     18538 MEMB     161      SAPE     C32      CTL2    -0.220000       12.0110           0
     18539 MEMB     161      SAPE     H2X      HAL2     0.900000E-01   1.00800           0
     18540 MEMB     161      SAPE     H2Y      HAL2     0.900000E-01   1.00800           0
     18541 MEMB     161      SAPE     C23      CTL2    -0.180000       12.0110           0
     18542 MEMB     161      SAPE     H3R      HAL2     0.900000E-01   1.00800           0
     18543 MEMB     161      SAPE     H3S      HAL2     0.900000E-01   1.00800           0
     18544 MEMB     161      SAPE     C24      CTL2    -0.180000       12.0110           0
     18545 MEMB     161      SAPE     H4R      HAL2     0.900000E-01   1.00800           0
     18546 MEMB     161      SAPE     H4S      HAL2     0.900000E-01   1.00800           0
     18547 MEMB     161      SAPE     C25      CEL1    -0.150000       12.0110           0
     18548 MEMB     161      SAPE     H5R      HEL1     0.150000       1.00800           0
     18549 MEMB     161      SAPE     C26      CEL1    -0.150000       12.0110           0
     18550 MEMB     161      SAPE     H6R      HEL1     0.150000       1.00800           0
     18551 MEMB     161      SAPE     C27      CTL2    -0.180000       12.0110           0
     18552 MEMB     161      SAPE     H7R      HAL2     0.900000E-01   1.00800           0
     18553 MEMB     161      SAPE     H7S      HAL2     0.900000E-01   1.00800           0
     18554 MEMB     161      SAPE     C28      CEL1    -0.150000       12.0110           0
     18555 MEMB     161      SAPE     H8R      HEL1     0.150000       1.00800           0
     18556 MEMB     161      SAPE     C29      CEL1    -0.150000       12.0110           0
     18557 MEMB     161      SAPE     H9R      HEL1     0.150000       1.00800           0
     18558 MEMB     161      SAPE     C210     CTL2    -0.180000       12.0110           0
     18559 MEMB     161      SAPE     H10R     HAL2     0.900000E-01   1.00800           0
     18560 MEMB     161      SAPE     H10S     HAL2     0.900000E-01   1.00800           0
     18561 MEMB     161      SAPE     C211     CEL1    -0.150000       12.0110           0
     18562 MEMB     161      SAPE     H11R     HEL1     0.150000       1.00800           0
     18563 MEMB     161      SAPE     C212     CEL1    -0.150000       12.0110           0
     18564 MEMB     161      SAPE     H12R     HEL1     0.150000       1.00800           0
     18565 MEMB     161      SAPE     C213     CTL2    -0.180000       12.0110           0
     18566 MEMB     161      SAPE     H13R     HAL2     0.900000E-01   1.00800           0
     18567 MEMB     161      SAPE     H13S     HAL2     0.900000E-01   1.00800           0
     18568 MEMB     161      SAPE     C214     CEL1    -0.150000       12.0110           0
     18569 MEMB     161      SAPE     H14R     HEL1     0.150000       1.00800           0
     18570 MEMB     161      SAPE     C215     CEL1    -0.150000       12.0110           0
     18571 MEMB     161      SAPE     H15R     HEL1     0.150000       1.00800           0
     18572 MEMB     161      SAPE     C216     CTL2    -0.180000       12.0110           0
     18573 MEMB     161      SAPE     H16R     HAL2     0.900000E-01   1.00800           0
     18574 MEMB     161      SAPE     H16S     HAL2     0.900000E-01   1.00800           0
     18575 MEMB     161      SAPE     C217     CTL2    -0.180000       12.0110           0
     18576 MEMB     161      SAPE     H17R     HAL2     0.900000E-01   1.00800           0
     18577 MEMB     161      SAPE     H17S     HAL2     0.900000E-01   1.00800           0
     18578 MEMB     161      SAPE     C218     CTL2    -0.180000       12.0110           0
     18579 MEMB     161      SAPE     H18R     HAL2     0.900000E-01   1.00800           0
     18580 MEMB     161      SAPE     H18S     HAL2     0.900000E-01   1.00800           0
     18581 MEMB     161      SAPE     C219     CTL2    -0.180000       12.0110           0
     18582 MEMB     161      SAPE     H19R     HAL2     0.900000E-01   1.00800           0
     18583 MEMB     161      SAPE     H19S     HAL2     0.900000E-01   1.00800           0
     18584 MEMB     161      SAPE     C220     CTL3    -0.270000       12.0110           0
     18585 MEMB     161      SAPE     H20R     HAL3     0.900000E-01   1.00800           0
     18586 MEMB     161      SAPE     H20S     HAL3     0.900000E-01   1.00800           0
     18587 MEMB     161      SAPE     H20T     HAL3     0.900000E-01   1.00800           0
     18588 MEMB     161      SAPE     C33      CTL2    -0.180000       12.0110           0
     18589 MEMB     161      SAPE     H3X      HAL2     0.900000E-01   1.00800           0
     18590 MEMB     161      SAPE     H3Y      HAL2     0.900000E-01   1.00800           0
     18591 MEMB     161      SAPE     C34      CTL2    -0.180000       12.0110           0
     18592 MEMB     161      SAPE     H4X      HAL2     0.900000E-01   1.00800           0
     18593 MEMB     161      SAPE     H4Y      HAL2     0.900000E-01   1.00800           0
     18594 MEMB     161      SAPE     C35      CTL2    -0.180000       12.0110           0
     18595 MEMB     161      SAPE     H5X      HAL2     0.900000E-01   1.00800           0
     18596 MEMB     161      SAPE     H5Y      HAL2     0.900000E-01   1.00800           0
     18597 MEMB     161      SAPE     C36      CTL2    -0.180000       12.0110           0
     18598 MEMB     161      SAPE     H6X      HAL2     0.900000E-01   1.00800           0
     18599 MEMB     161      SAPE     H6Y      HAL2     0.900000E-01   1.00800           0
     18600 MEMB     161      SAPE     C37      CTL2    -0.180000       12.0110           0
     18601 MEMB     161      SAPE     H7X      HAL2     0.900000E-01   1.00800           0
     18602 MEMB     161      SAPE     H7Y      HAL2     0.900000E-01   1.00800           0
     18603 MEMB     161      SAPE     C38      CTL2    -0.180000       12.0110           0
     18604 MEMB     161      SAPE     H8X      HAL2     0.900000E-01   1.00800           0
     18605 MEMB     161      SAPE     H8Y      HAL2     0.900000E-01   1.00800           0
     18606 MEMB     161      SAPE     C39      CTL2    -0.180000       12.0110           0
     18607 MEMB     161      SAPE     H9X      HAL2     0.900000E-01   1.00800           0
     18608 MEMB     161      SAPE     H9Y      HAL2     0.900000E-01   1.00800           0
     18609 MEMB     161      SAPE     C310     CTL2    -0.180000       12.0110           0
     18610 MEMB     161      SAPE     H10X     HAL2     0.900000E-01   1.00800           0
     18611 MEMB     161      SAPE     H10Y     HAL2     0.900000E-01   1.00800           0
     18612 MEMB     161      SAPE     C311     CTL2    -0.180000       12.0110           0
     18613 MEMB     161      SAPE     H11X     HAL2     0.900000E-01   1.00800           0
     18614 MEMB     161      SAPE     H11Y     HAL2     0.900000E-01   1.00800           0
     18615 MEMB     161      SAPE     C312     CTL2    -0.180000       12.0110           0
     18616 MEMB     161      SAPE     H12X     HAL2     0.900000E-01   1.00800           0
     18617 MEMB     161      SAPE     H12Y     HAL2     0.900000E-01   1.00800           0
     18618 MEMB     161      SAPE     C313     CTL2    -0.180000       12.0110           0
     18619 MEMB     161      SAPE     H13X     HAL2     0.900000E-01   1.00800           0
     18620 MEMB     161      SAPE     H13Y     HAL2     0.900000E-01   1.00800           0
     18621 MEMB     161      SAPE     C314     CTL2    -0.180000       12.0110           0
     18622 MEMB     161      SAPE     H14X     HAL2     0.900000E-01   1.00800           0
     18623 MEMB     161      SAPE     H14Y     HAL2     0.900000E-01   1.00800           0
     18624 MEMB     161      SAPE     C315     CTL2    -0.180000       12.0110           0
     18625 MEMB     161      SAPE     H15X     HAL2     0.900000E-01   1.00800           0
     18626 MEMB     161      SAPE     H15Y     HAL2     0.900000E-01   1.00800           0
     18627 MEMB     161      SAPE     C316     CTL2    -0.180000       12.0110           0
     18628 MEMB     161      SAPE     H16X     HAL2     0.900000E-01   1.00800           0
     18629 MEMB     161      SAPE     H16Y     HAL2     0.900000E-01   1.00800           0
     18630 MEMB     161      SAPE     C317     CTL2    -0.180000       12.0110           0
     18631 MEMB     161      SAPE     H17X     HAL2     0.900000E-01   1.00800           0
     18632 MEMB     161      SAPE     H17Y     HAL2     0.900000E-01   1.00800           0
     18633 MEMB     161      SAPE     C318     CTL3    -0.270000       12.0110           0
     18634 MEMB     161      SAPE     H18X     HAL3     0.900000E-01   1.00800           0
     18635 MEMB     161      SAPE     H18Y     HAL3     0.900000E-01   1.00800           0
     18636 MEMB     161      SAPE     H18Z     HAL3     0.900000E-01   1.00800           0
     18637 MEMB     162      CHL1     C3       CRL1     0.140000       12.0110           0
     18638 MEMB     162      CHL1     H3       HGA1     0.900000E-01   1.00800           0
     18639 MEMB     162      CHL1     O3       OHL     -0.660000       15.9994           0
     18640 MEMB     162      CHL1     H3'      HOL      0.430000       1.00800           0
     18641 MEMB     162      CHL1     C4       CRL2    -0.180000       12.0110           0
     18642 MEMB     162      CHL1     H4A      HGA2     0.900000E-01   1.00800           0
     18643 MEMB     162      CHL1     H4B      HGA2     0.900000E-01   1.00800           0
     18644 MEMB     162      CHL1     C5       CEL1      0.00000       12.0110           0
     18645 MEMB     162      CHL1     C6       CEL1    -0.150000       12.0110           0
     18646 MEMB     162      CHL1     H6       HEL1     0.150000       1.00800           0
     18647 MEMB     162      CHL1     C7       CRL2    -0.180000       12.0110           0
     18648 MEMB     162      CHL1     H7A      HGA2     0.900000E-01   1.00800           0
     18649 MEMB     162      CHL1     H7B      HGA2     0.900000E-01   1.00800           0
     18650 MEMB     162      CHL1     C8       CRL1    -0.900000E-01   12.0110           0
     18651 MEMB     162      CHL1     H8       HGA1     0.900000E-01   1.00800           0
     18652 MEMB     162      CHL1     C14      CRL1    -0.900000E-01   12.0110           0
     18653 MEMB     162      CHL1     H14      HGA1     0.900000E-01   1.00800           0
     18654 MEMB     162      CHL1     C15      CRL2    -0.180000       12.0110           0
     18655 MEMB     162      CHL1     H15A     HGA2     0.900000E-01   1.00800           0
     18656 MEMB     162      CHL1     H15B     HGA2     0.900000E-01   1.00800           0
     18657 MEMB     162      CHL1     C16      CRL2    -0.180000       12.0110           0
     18658 MEMB     162      CHL1     H16A     HGA2     0.900000E-01   1.00800           0
     18659 MEMB     162      CHL1     H16B     HGA2     0.900000E-01   1.00800           0
     18660 MEMB     162      CHL1     C17      CRL1    -0.900000E-01   12.0110           0
     18661 MEMB     162      CHL1     H17      HGA1     0.900000E-01   1.00800           0
     18662 MEMB     162      CHL1     C13      CRL1      0.00000       12.0110           0
     18663 MEMB     162      CHL1     C18      CTL3    -0.270000       12.0110           0
     18664 MEMB     162      CHL1     H18A     HAL3     0.900000E-01   1.00800           0
     18665 MEMB     162      CHL1     H18B     HAL3     0.900000E-01   1.00800           0
     18666 MEMB     162      CHL1     H18C     HAL3     0.900000E-01   1.00800           0
     18667 MEMB     162      CHL1     C12      CRL2    -0.180000       12.0110           0
     18668 MEMB     162      CHL1     H12A     HGA2     0.900000E-01   1.00800           0
     18669 MEMB     162      CHL1     H12B     HGA2     0.900000E-01   1.00800           0
     18670 MEMB     162      CHL1     C11      CRL2    -0.180000       12.0110           0
     18671 MEMB     162      CHL1     H11A     HGA2     0.900000E-01   1.00800           0
     18672 MEMB     162      CHL1     H11B     HGA2     0.900000E-01   1.00800           0
     18673 MEMB     162      CHL1     C9       CRL1    -0.900000E-01   12.0110           0
     18674 MEMB     162      CHL1     H9       HGA1     0.900000E-01   1.00800           0
     18675 MEMB     162      CHL1     C10      CRL1      0.00000       12.0110           0
     18676 MEMB     162      CHL1     C19      CTL3    -0.270000       12.0110           0
     18677 MEMB     162      CHL1     H19A     HAL3     0.900000E-01   1.00800           0
     18678 MEMB     162      CHL1     H19B     HAL3     0.900000E-01   1.00800           0
     18679 MEMB     162      CHL1     H19C     HAL3     0.900000E-01   1.00800           0
     18680 MEMB     162      CHL1     C1       CRL2    -0.180000       12.0110           0
     18681 MEMB     162      CHL1     H1A      HGA2     0.900000E-01   1.00800           0
     18682 MEMB     162      CHL1     H1B      HGA2     0.900000E-01   1.00800           0
     18683 MEMB     162      CHL1     C2       CRL2    -0.180000       12.0110           0
     18684 MEMB     162      CHL1     H2A      HGA2     0.900000E-01   1.00800           0
     18685 MEMB     162      CHL1     H2B      HGA2     0.900000E-01   1.00800           0
     18686 MEMB     162      CHL1     C20      CTL1    -0.900000E-01   12.0110           0
     18687 MEMB     162      CHL1     H20      HAL1     0.900000E-01   1.00800           0
     18688 MEMB     162      CHL1     C21      CTL3    -0.270000       12.0110           0
     18689 MEMB     162      CHL1     H21A     HAL3     0.900000E-01   1.00800           0
     18690 MEMB     162      CHL1     H21B     HAL3     0.900000E-01   1.00800           0
     18691 MEMB     162      CHL1     H21C     HAL3     0.900000E-01   1.00800           0
     18692 MEMB     162      CHL1     C22      CTL2    -0.180000       12.0110           0
     18693 MEMB     162      CHL1     H22A     HAL2     0.900000E-01   1.00800           0
     18694 MEMB     162      CHL1     H22B     HAL2     0.900000E-01   1.00800           0
     18695 MEMB     162      CHL1     C23      CTL2    -0.180000       12.0110           0
     18696 MEMB     162      CHL1     H23A     HAL2     0.900000E-01   1.00800           0
     18697 MEMB     162      CHL1     H23B     HAL2     0.900000E-01   1.00800           0
     18698 MEMB     162      CHL1     C24      CTL2    -0.180000       12.0110           0
     18699 MEMB     162      CHL1     H24A     HAL2     0.900000E-01   1.00800           0
     18700 MEMB     162      CHL1     H24B     HAL2     0.900000E-01   1.00800           0
     18701 MEMB     162      CHL1     C25      CTL1    -0.900000E-01   12.0110           0
     18702 MEMB     162      CHL1     H25      HAL1     0.900000E-01   1.00800           0
     18703 MEMB     162      CHL1     C26      CTL3    -0.270000       12.0110           0
     18704 MEMB     162      CHL1     H26A     HAL3     0.900000E-01   1.00800           0
     18705 MEMB     162      CHL1     H26B     HAL3     0.900000E-01   1.00800           0
     18706 MEMB     162      CHL1     H26C     HAL3     0.900000E-01   1.00800           0
     18707 MEMB     162      CHL1     C27      CTL3    -0.270000       12.0110           0
     18708 MEMB     162      CHL1     H27A     HAL3     0.900000E-01   1.00800           0
     18709 MEMB     162      CHL1     H27B     HAL3     0.900000E-01   1.00800           0
     18710 MEMB     162      CHL1     H27C     HAL3     0.900000E-01   1.00800           0
     18711 MEMB     163      OSM      N        NTL     -0.600000       14.0070           0
     18712 MEMB     163      OSM      C15      CTL5    -0.350000       12.0110           0
     18713 MEMB     163      OSM      H15A     HL       0.250000       1.00800           0
     18714 MEMB     163      OSM      H15B     HL       0.250000       1.00800           0
     18715 MEMB     163      OSM      H15C     HL       0.250000       1.00800           0
     18716 MEMB     163      OSM      C14      CTL5    -0.350000       12.0110           0
     18717 MEMB     163      OSM      H14A     HL       0.250000       1.00800           0
     18718 MEMB     163      OSM      H14B     HL       0.250000       1.00800           0
     18719 MEMB     163      OSM      H14C     HL       0.250000       1.00800           0
     18720 MEMB     163      OSM      C13      CTL5    -0.350000       12.0110           0
     18721 MEMB     163      OSM      H13A     HL       0.250000       1.00800           0
     18722 MEMB     163      OSM      H13B     HL       0.250000       1.00800           0
     18723 MEMB     163      OSM      H13C     HL       0.250000       1.00800           0
     18724 MEMB     163      OSM      C12      CTL2    -0.100000       12.0110           0
     18725 MEMB     163      OSM      H12A     HL       0.250000       1.00800           0
     18726 MEMB     163      OSM      H12B     HL       0.250000       1.00800           0
     18727 MEMB     163      OSM      C11      CTL2    -0.800000E-01   12.0110           0
     18728 MEMB     163      OSM      H11A     HAL2     0.900000E-01   1.00800           0
     18729 MEMB     163      OSM      H11B     HAL2     0.900000E-01   1.00800           0
     18730 MEMB     163      OSM      P        PL        1.50000       30.9740           0
     18731 MEMB     163      OSM      O13      O2L     -0.780000       15.9994           0
     18732 MEMB     163      OSM      O14      O2L     -0.780000       15.9994           0
     18733 MEMB     163      OSM      O11      OSLP    -0.570000       15.9994           0
     18734 MEMB     163      OSM      O12      OSLP    -0.570000       15.9994           0
     18735 MEMB     163      OSM      C1S      CTL2    -0.800000E-01   12.0110           0
     18736 MEMB     163      OSM      H1S      HAL2     0.900000E-01   1.00800           0
     18737 MEMB     163      OSM      H1T      HAL2     0.900000E-01   1.00800           0
     18738 MEMB     163      OSM      NF       NHL     -0.700000       14.0070           0
     18739 MEMB     163      OSM      HNF      H        0.350000       1.00800           0
     18740 MEMB     163      OSM      C2S      CTL1     0.300000       12.0110           0
     18741 MEMB     163      OSM      H2S      HAL1     0.500000E-01   1.00800           0
     18742 MEMB     163      OSM      C3S      CTO1     0.500000       12.0110           0
     18743 MEMB     163      OSM      H3S      HAL1    -0.110000       1.00800           0
     18744 MEMB     163      OSM      O3       OHL     -0.690000       15.9994           0
     18745 MEMB     163      OSM      HO3      HOL      0.300000       1.00800           0
     18746 MEMB     163      OSM      C4S      CEL3    -0.150000       12.0110           0
     18747 MEMB     163      OSM      H4S      HEL1     0.150000       1.00800           0
     18748 MEMB     163      OSM      C5S      CEL3    -0.150000       12.0110           0
     18749 MEMB     163      OSM      H5S      HEL1     0.150000       1.00800           0
     18750 MEMB     163      OSM      C6S      CTL2    -0.180000       12.0110           0
     18751 MEMB     163      OSM      H6S      HAL2     0.900000E-01   1.00800           0
     18752 MEMB     163      OSM      H6T      HAL2     0.900000E-01   1.00800           0
     18753 MEMB     163      OSM      C7S      CTL2    -0.180000       12.0110           0
     18754 MEMB     163      OSM      H7S      HAL2     0.900000E-01   1.00800           0
     18755 MEMB     163      OSM      H7T      HAL2     0.900000E-01   1.00800           0
     18756 MEMB     163      OSM      C8S      CTL2    -0.180000       12.0110           0
     18757 MEMB     163      OSM      H8S      HAL2     0.900000E-01   1.00800           0
     18758 MEMB     163      OSM      H8T      HAL2     0.900000E-01   1.00800           0
     18759 MEMB     163      OSM      C9S      CTL2    -0.180000       12.0110           0
     18760 MEMB     163      OSM      H9S      HAL2     0.900000E-01   1.00800           0
     18761 MEMB     163      OSM      H9T      HAL2     0.900000E-01   1.00800           0
     18762 MEMB     163      OSM      C10S     CTL2    -0.180000       12.0110           0
     18763 MEMB     163      OSM      H10S     HAL2     0.900000E-01   1.00800           0
     18764 MEMB     163      OSM      H10T     HAL2     0.900000E-01   1.00800           0
     18765 MEMB     163      OSM      C11S     CTL2    -0.180000       12.0110           0
     18766 MEMB     163      OSM      H11S     HAL2     0.900000E-01   1.00800           0
     18767 MEMB     163      OSM      H11T     HAL2     0.900000E-01   1.00800           0
     18768 MEMB     163      OSM      C12S     CTL2    -0.180000       12.0110           0
     18769 MEMB     163      OSM      H12S     HAL2     0.900000E-01   1.00800           0
     18770 MEMB     163      OSM      H12T     HAL2     0.900000E-01   1.00800           0
     18771 MEMB     163      OSM      C13S     CTL2    -0.180000       12.0110           0
     18772 MEMB     163      OSM      H13S     HAL2     0.900000E-01   1.00800           0
     18773 MEMB     163      OSM      H13T     HAL2     0.900000E-01   1.00800           0
     18774 MEMB     163      OSM      C14S     CTL2    -0.180000       12.0110           0
     18775 MEMB     163      OSM      H14S     HAL2     0.900000E-01   1.00800           0
     18776 MEMB     163      OSM      H14T     HAL2     0.900000E-01   1.00800           0
     18777 MEMB     163      OSM      C15S     CTL2    -0.180000       12.0110           0
     18778 MEMB     163      OSM      H15S     HAL2     0.900000E-01   1.00800           0
     18779 MEMB     163      OSM      H15T     HAL2     0.900000E-01   1.00800           0
     18780 MEMB     163      OSM      C16S     CTL2    -0.180000       12.0110           0
     18781 MEMB     163      OSM      H16S     HAL2     0.900000E-01   1.00800           0
     18782 MEMB     163      OSM      H16T     HAL2     0.900000E-01   1.00800           0
     18783 MEMB     163      OSM      C17S     CTL2    -0.180000       12.0110           0
     18784 MEMB     163      OSM      H17S     HAL2     0.900000E-01   1.00800           0
     18785 MEMB     163      OSM      H17T     HAL2     0.900000E-01   1.00800           0
     18786 MEMB     163      OSM      C18S     CTL3    -0.270000       12.0110           0
     18787 MEMB     163      OSM      H18S     HAL3     0.900000E-01   1.00800           0
     18788 MEMB     163      OSM      H18T     HAL3     0.900000E-01   1.00800           0
     18789 MEMB     163      OSM      H18U     HAL3     0.900000E-01   1.00800           0
     18790 MEMB     163      OSM      C1F      C        0.550000       12.0110           0
     18791 MEMB     163      OSM      OF       O       -0.600000       15.9994           0
     18792 MEMB     163      OSM      C2F      CTL2    -0.700000E-01   12.0110           0
     18793 MEMB     163      OSM      H2F      HAL2     0.600000E-01   1.00800           0
     18794 MEMB     163      OSM      H2G      HAL2     0.600000E-01   1.00800           0
     18795 MEMB     163      OSM      C3F      CTL2    -0.180000       12.0110           0
     18796 MEMB     163      OSM      H3F      HAL2     0.900000E-01   1.00800           0
     18797 MEMB     163      OSM      H3G      HAL2     0.900000E-01   1.00800           0
     18798 MEMB     163      OSM      C4F      CTL2    -0.180000       12.0110           0
     18799 MEMB     163      OSM      H4F      HAL2     0.900000E-01   1.00800           0
     18800 MEMB     163      OSM      H4G      HAL2     0.900000E-01   1.00800           0
     18801 MEMB     163      OSM      C5F      CTL2    -0.180000       12.0110           0
     18802 MEMB     163      OSM      H5F      HAL2     0.900000E-01   1.00800           0
     18803 MEMB     163      OSM      H5G      HAL2     0.900000E-01   1.00800           0
     18804 MEMB     163      OSM      C6F      CTL2    -0.180000       12.0110           0
     18805 MEMB     163      OSM      H6F      HAL2     0.900000E-01   1.00800           0
     18806 MEMB     163      OSM      H6G      HAL2     0.900000E-01   1.00800           0
     18807 MEMB     163      OSM      C7F      CTL2    -0.180000       12.0110           0
     18808 MEMB     163      OSM      H7F      HAL2     0.900000E-01   1.00800           0
     18809 MEMB     163      OSM      H7G      HAL2     0.900000E-01   1.00800           0
     18810 MEMB     163      OSM      C8F      CTL2    -0.180000       12.0110           0
     18811 MEMB     163      OSM      H8F      HAL2     0.900000E-01   1.00800           0
     18812 MEMB     163      OSM      H8G      HAL2     0.900000E-01   1.00800           0
     18813 MEMB     163      OSM      C9F      CEL1    -0.150000       12.0110           0
     18814 MEMB     163      OSM      H9F      HEL1     0.150000       1.00800           0
     18815 MEMB     163      OSM      C10F     CEL1    -0.150000       12.0110           0
     18816 MEMB     163      OSM      H10F     HEL1     0.150000       1.00800           0
     18817 MEMB     163      OSM      C11F     CTL2    -0.180000       12.0110           0
     18818 MEMB     163      OSM      H11F     HAL2     0.900000E-01   1.00800           0
     18819 MEMB     163      OSM      H11G     HAL2     0.900000E-01   1.00800           0
     18820 MEMB     163      OSM      C12F     CTL2    -0.180000       12.0110           0
     18821 MEMB     163      OSM      H12F     HAL2     0.900000E-01   1.00800           0
     18822 MEMB     163      OSM      H12G     HAL2     0.900000E-01   1.00800           0
     18823 MEMB     163      OSM      C13F     CTL2    -0.180000       12.0110           0
     18824 MEMB     163      OSM      H13F     HAL2     0.900000E-01   1.00800           0
     18825 MEMB     163      OSM      H13G     HAL2     0.900000E-01   1.00800           0
     18826 MEMB     163      OSM      C14F     CTL2    -0.180000       12.0110           0
     18827 MEMB     163      OSM      H14F     HAL2     0.900000E-01   1.00800           0
     18828 MEMB     163      OSM      H14G     HAL2     0.900000E-01   1.00800           0
     18829 MEMB     163      OSM      C15F     CTL2    -0.180000       12.0110           0
     18830 MEMB     163      OSM      H15F     HAL2     0.900000E-01   1.00800           0
     18831 MEMB     163      OSM      H15G     HAL2     0.900000E-01   1.00800           0
     18832 MEMB     163      OSM      C16F     CTL2    -0.180000       12.0110           0
     18833 MEMB     163      OSM      H16F     HAL2     0.900000E-01   1.00800           0
     18834 MEMB     163      OSM      H16G     HAL2     0.900000E-01   1.00800           0
     18835 MEMB     163      OSM      C17F     CTL2    -0.180000       12.0110           0
     18836 MEMB     163      OSM      H17F     HAL2     0.900000E-01   1.00800           0
     18837 MEMB     163      OSM      H17G     HAL2     0.900000E-01   1.00800           0
     18838 MEMB     163      OSM      C18F     CTL3    -0.270000       12.0110           0
     18839 MEMB     163      OSM      H18F     HAL3     0.900000E-01   1.00800           0
     18840 MEMB     163      OSM      H18G     HAL3     0.900000E-01   1.00800           0
     18841 MEMB     163      OSM      H18H     HAL3     0.900000E-01   1.00800           0
     18842 MEMB     164      SLPC     N        NTL     -0.600000       14.0070           0
     18843 MEMB     164      SLPC     C13      CTL5    -0.350000       12.0110           0
     18844 MEMB     164      SLPC     H13A     HL       0.250000       1.00800           0
     18845 MEMB     164      SLPC     H13B     HL       0.250000       1.00800           0
     18846 MEMB     164      SLPC     H13C     HL       0.250000       1.00800           0
     18847 MEMB     164      SLPC     C14      CTL5    -0.350000       12.0110           0
     18848 MEMB     164      SLPC     H14A     HL       0.250000       1.00800           0
     18849 MEMB     164      SLPC     H14B     HL       0.250000       1.00800           0
     18850 MEMB     164      SLPC     H14C     HL       0.250000       1.00800           0
     18851 MEMB     164      SLPC     C15      CTL5    -0.350000       12.0110           0
     18852 MEMB     164      SLPC     H15A     HL       0.250000       1.00800           0
     18853 MEMB     164      SLPC     H15B     HL       0.250000       1.00800           0
     18854 MEMB     164      SLPC     H15C     HL       0.250000       1.00800           0
     18855 MEMB     164      SLPC     C12      CTL2    -0.100000       12.0110           0
     18856 MEMB     164      SLPC     H12A     HL       0.250000       1.00800           0
     18857 MEMB     164      SLPC     H12B     HL       0.250000       1.00800           0
     18858 MEMB     164      SLPC     C11      CTL2    -0.800000E-01   12.0110           0
     18859 MEMB     164      SLPC     H11A     HAL2     0.900000E-01   1.00800           0
     18860 MEMB     164      SLPC     H11B     HAL2     0.900000E-01   1.00800           0
     18861 MEMB     164      SLPC     P        PL        1.50000       30.9740           0
     18862 MEMB     164      SLPC     O13      O2L     -0.780000       15.9994           0
     18863 MEMB     164      SLPC     O14      O2L     -0.780000       15.9994           0
     18864 MEMB     164      SLPC     O12      OSLP    -0.570000       15.9994           0
     18865 MEMB     164      SLPC     O11      OSLP    -0.570000       15.9994           0
     18866 MEMB     164      SLPC     C1       CTL2    -0.800000E-01   12.0110           0
     18867 MEMB     164      SLPC     HA       HAL2     0.900000E-01   1.00800           0
     18868 MEMB     164      SLPC     HB       HAL2     0.900000E-01   1.00800           0
     18869 MEMB     164      SLPC     C2       CTL1     0.170000       12.0110           0
     18870 MEMB     164      SLPC     HS       HAL1     0.900000E-01   1.00800           0
     18871 MEMB     164      SLPC     O21      OSL     -0.490000       15.9994           0
     18872 MEMB     164      SLPC     C21      CL       0.900000       12.0110           0
     18873 MEMB     164      SLPC     O22      OBL     -0.630000       15.9994           0
     18874 MEMB     164      SLPC     C22      CTL2    -0.220000       12.0110           0
     18875 MEMB     164      SLPC     H2R      HAL2     0.900000E-01   1.00800           0
     18876 MEMB     164      SLPC     H2S      HAL2     0.900000E-01   1.00800           0
     18877 MEMB     164      SLPC     C3       CTL2     0.800000E-01   12.0110           0
     18878 MEMB     164      SLPC     HX       HAL2     0.900000E-01   1.00800           0
     18879 MEMB     164      SLPC     HY       HAL2     0.900000E-01   1.00800           0
     18880 MEMB     164      SLPC     O31      OSL     -0.490000       15.9994           0
     18881 MEMB     164      SLPC     C31      CL       0.900000       12.0110           0
     18882 MEMB     164      SLPC     O32      OBL     -0.630000       15.9994           0
     18883 MEMB     164      SLPC     C32      CTL2    -0.220000       12.0110           0
     18884 MEMB     164      SLPC     H2X      HAL2     0.900000E-01   1.00800           0
     18885 MEMB     164      SLPC     H2Y      HAL2     0.900000E-01   1.00800           0
     18886 MEMB     164      SLPC     C23      CTL2    -0.180000       12.0110           0
     18887 MEMB     164      SLPC     H3R      HAL2     0.900000E-01   1.00800           0
     18888 MEMB     164      SLPC     H3S      HAL2     0.900000E-01   1.00800           0
     18889 MEMB     164      SLPC     C24      CTL2    -0.180000       12.0110           0
     18890 MEMB     164      SLPC     H4R      HAL2     0.900000E-01   1.00800           0
     18891 MEMB     164      SLPC     H4S      HAL2     0.900000E-01   1.00800           0
     18892 MEMB     164      SLPC     C25      CTL2    -0.180000       12.0110           0
     18893 MEMB     164      SLPC     H5R      HAL2     0.900000E-01   1.00800           0
     18894 MEMB     164      SLPC     H5S      HAL2     0.900000E-01   1.00800           0
     18895 MEMB     164      SLPC     C26      CTL2    -0.180000       12.0110           0
     18896 MEMB     164      SLPC     H6R      HAL2     0.900000E-01   1.00800           0
     18897 MEMB     164      SLPC     H6S      HAL2     0.900000E-01   1.00800           0
     18898 MEMB     164      SLPC     C27      CTL2    -0.180000       12.0110           0
     18899 MEMB     164      SLPC     H7R      HAL2     0.900000E-01   1.00800           0
     18900 MEMB     164      SLPC     H7S      HAL2     0.900000E-01   1.00800           0
     18901 MEMB     164      SLPC     C28      CTL2    -0.180000       12.0110           0
     18902 MEMB     164      SLPC     H8R      HAL2     0.900000E-01   1.00800           0
     18903 MEMB     164      SLPC     H8S      HAL2     0.900000E-01   1.00800           0
     18904 MEMB     164      SLPC     C29      CEL1    -0.150000       12.0110           0
     18905 MEMB     164      SLPC     H9R      HEL1     0.150000       1.00800           0
     18906 MEMB     164      SLPC     C210     CEL1    -0.150000       12.0110           0
     18907 MEMB     164      SLPC     H10R     HEL1     0.150000       1.00800           0
     18908 MEMB     164      SLPC     C211     CTL2    -0.180000       12.0110           0
     18909 MEMB     164      SLPC     H11R     HAL2     0.900000E-01   1.00800           0
     18910 MEMB     164      SLPC     H11S     HAL2     0.900000E-01   1.00800           0
     18911 MEMB     164      SLPC     C212     CEL1    -0.150000       12.0110           0
     18912 MEMB     164      SLPC     H12R     HEL1     0.150000       1.00800           0
     18913 MEMB     164      SLPC     C213     CEL1    -0.150000       12.0110           0
     18914 MEMB     164      SLPC     H13R     HEL1     0.150000       1.00800           0
     18915 MEMB     164      SLPC     C214     CTL2    -0.180000       12.0110           0
     18916 MEMB     164      SLPC     H14R     HAL2     0.900000E-01   1.00800           0
     18917 MEMB     164      SLPC     H14S     HAL2     0.900000E-01   1.00800           0
     18918 MEMB     164      SLPC     C215     CTL2    -0.180000       12.0110           0
     18919 MEMB     164      SLPC     H15R     HAL2     0.900000E-01   1.00800           0
     18920 MEMB     164      SLPC     H15S     HAL2     0.900000E-01   1.00800           0
     18921 MEMB     164      SLPC     C216     CTL2    -0.180000       12.0110           0
     18922 MEMB     164      SLPC     H16R     HAL2     0.900000E-01   1.00800           0
     18923 MEMB     164      SLPC     H16S     HAL2     0.900000E-01   1.00800           0
     18924 MEMB     164      SLPC     C217     CTL2    -0.180000       12.0110           0
     18925 MEMB     164      SLPC     H17R     HAL2     0.900000E-01   1.00800           0
     18926 MEMB     164      SLPC     H17S     HAL2     0.900000E-01   1.00800           0
     18927 MEMB     164      SLPC     C218     CTL3    -0.270000       12.0110           0
     18928 MEMB     164      SLPC     H18R     HAL3     0.900000E-01   1.00800           0
     18929 MEMB     164      SLPC     H18S     HAL3     0.900000E-01   1.00800           0
     18930 MEMB     164      SLPC     H18T     HAL3     0.900000E-01   1.00800           0
     18931 MEMB     164      SLPC     C33      CTL2    -0.180000       12.0110           0
     18932 MEMB     164      SLPC     H3X      HAL2     0.900000E-01   1.00800           0
     18933 MEMB     164      SLPC     H3Y      HAL2     0.900000E-01   1.00800           0
     18934 MEMB     164      SLPC     C34      CTL2    -0.180000       12.0110           0
     18935 MEMB     164      SLPC     H4X      HAL2     0.900000E-01   1.00800           0
     18936 MEMB     164      SLPC     H4Y      HAL2     0.900000E-01   1.00800           0
     18937 MEMB     164      SLPC     C35      CTL2    -0.180000       12.0110           0
     18938 MEMB     164      SLPC     H5X      HAL2     0.900000E-01   1.00800           0
     18939 MEMB     164      SLPC     H5Y      HAL2     0.900000E-01   1.00800           0
     18940 MEMB     164      SLPC     C36      CTL2    -0.180000       12.0110           0
     18941 MEMB     164      SLPC     H6X      HAL2     0.900000E-01   1.00800           0
     18942 MEMB     164      SLPC     H6Y      HAL2     0.900000E-01   1.00800           0
     18943 MEMB     164      SLPC     C37      CTL2    -0.180000       12.0110           0
     18944 MEMB     164      SLPC     H7X      HAL2     0.900000E-01   1.00800           0
     18945 MEMB     164      SLPC     H7Y      HAL2     0.900000E-01   1.00800           0
     18946 MEMB     164      SLPC     C38      CTL2    -0.180000       12.0110           0
     18947 MEMB     164      SLPC     H8X      HAL2     0.900000E-01   1.00800           0
     18948 MEMB     164      SLPC     H8Y      HAL2     0.900000E-01   1.00800           0
     18949 MEMB     164      SLPC     C39      CTL2    -0.180000       12.0110           0
     18950 MEMB     164      SLPC     H9X      HAL2     0.900000E-01   1.00800           0
     18951 MEMB     164      SLPC     H9Y      HAL2     0.900000E-01   1.00800           0
     18952 MEMB     164      SLPC     C310     CTL2    -0.180000       12.0110           0
     18953 MEMB     164      SLPC     H10X     HAL2     0.900000E-01   1.00800           0
     18954 MEMB     164      SLPC     H10Y     HAL2     0.900000E-01   1.00800           0
     18955 MEMB     164      SLPC     C311     CTL2    -0.180000       12.0110           0
     18956 MEMB     164      SLPC     H11X     HAL2     0.900000E-01   1.00800           0
     18957 MEMB     164      SLPC     H11Y     HAL2     0.900000E-01   1.00800           0
     18958 MEMB     164      SLPC     C312     CTL2    -0.180000       12.0110           0
     18959 MEMB     164      SLPC     H12X     HAL2     0.900000E-01   1.00800           0
     18960 MEMB     164      SLPC     H12Y     HAL2     0.900000E-01   1.00800           0
     18961 MEMB     164      SLPC     C313     CTL2    -0.180000       12.0110           0
     18962 MEMB     164      SLPC     H13X     HAL2     0.900000E-01   1.00800           0
     18963 MEMB     164      SLPC     H13Y     HAL2     0.900000E-01   1.00800           0
     18964 MEMB     164      SLPC     C314     CTL2    -0.180000       12.0110           0
     18965 MEMB     164      SLPC     H14X     HAL2     0.900000E-01   1.00800           0
     18966 MEMB     164      SLPC     H14Y     HAL2     0.900000E-01   1.00800           0
     18967 MEMB     164      SLPC     C315     CTL2    -0.180000       12.0110           0
     18968 MEMB     164      SLPC     H15X     HAL2     0.900000E-01   1.00800           0
     18969 MEMB     164      SLPC     H15Y     HAL2     0.900000E-01   1.00800           0
     18970 MEMB     164      SLPC     C316     CTL2    -0.180000       12.0110           0
     18971 MEMB     164      SLPC     H16X     HAL2     0.900000E-01   1.00800           0
     18972 MEMB     164      SLPC     H16Y     HAL2     0.900000E-01   1.00800           0
     18973 MEMB     164      SLPC     C317     CTL2    -0.180000       12.0110           0
     18974 MEMB     164      SLPC     H17X     HAL2     0.900000E-01   1.00800           0
     18975 MEMB     164      SLPC     H17Y     HAL2     0.900000E-01   1.00800           0
     18976 MEMB     164      SLPC     C318     CTL3    -0.270000       12.0110           0
     18977 MEMB     164      SLPC     H18X     HAL3     0.900000E-01   1.00800           0
     18978 MEMB     164      SLPC     H18Y     HAL3     0.900000E-01   1.00800           0
     18979 MEMB     164      SLPC     H18Z     HAL3     0.900000E-01   1.00800           0
     18980 MEMB     165      SAPC     N        NTL     -0.600000       14.0070           0
     18981 MEMB     165      SAPC     C12      CTL2    -0.100000       12.0110           0
     18982 MEMB     165      SAPC     H12A     HL       0.250000       1.00800           0
     18983 MEMB     165      SAPC     H12B     HL       0.250000       1.00800           0
     18984 MEMB     165      SAPC     C13      CTL5    -0.350000       12.0110           0
     18985 MEMB     165      SAPC     H13A     HL       0.250000       1.00800           0
     18986 MEMB     165      SAPC     H13B     HL       0.250000       1.00800           0
     18987 MEMB     165      SAPC     H13C     HL       0.250000       1.00800           0
     18988 MEMB     165      SAPC     C14      CTL5    -0.350000       12.0110           0
     18989 MEMB     165      SAPC     H14A     HL       0.250000       1.00800           0
     18990 MEMB     165      SAPC     H14B     HL       0.250000       1.00800           0
     18991 MEMB     165      SAPC     H14C     HL       0.250000       1.00800           0
     18992 MEMB     165      SAPC     C15      CTL5    -0.350000       12.0110           0
     18993 MEMB     165      SAPC     H15A     HL       0.250000       1.00800           0
     18994 MEMB     165      SAPC     H15B     HL       0.250000       1.00800           0
     18995 MEMB     165      SAPC     H15C     HL       0.250000       1.00800           0
     18996 MEMB     165      SAPC     C11      CTL2    -0.800000E-01   12.0110           0
     18997 MEMB     165      SAPC     H11A     HAL2     0.900000E-01   1.00800           0
     18998 MEMB     165      SAPC     H11B     HAL2     0.900000E-01   1.00800           0
     18999 MEMB     165      SAPC     P        PL        1.50000       30.9740           0
     19000 MEMB     165      SAPC     O13      O2L     -0.780000       15.9994           0
     19001 MEMB     165      SAPC     O14      O2L     -0.780000       15.9994           0
     19002 MEMB     165      SAPC     O12      OSLP    -0.570000       15.9994           0
     19003 MEMB     165      SAPC     O11      OSLP    -0.570000       15.9994           0
     19004 MEMB     165      SAPC     C1       CTL2    -0.800000E-01   12.0110           0
     19005 MEMB     165      SAPC     HA       HAL2     0.900000E-01   1.00800           0
     19006 MEMB     165      SAPC     HB       HAL2     0.900000E-01   1.00800           0
     19007 MEMB     165      SAPC     C2       CTL1     0.170000       12.0110           0
     19008 MEMB     165      SAPC     HS       HAL1     0.900000E-01   1.00800           0
     19009 MEMB     165      SAPC     O21      OSL     -0.490000       15.9994           0
     19010 MEMB     165      SAPC     C21      CL       0.900000       12.0110           0
     19011 MEMB     165      SAPC     O22      OBL     -0.630000       15.9994           0
     19012 MEMB     165      SAPC     C22      CTL2    -0.220000       12.0110           0
     19013 MEMB     165      SAPC     H2R      HAL2     0.900000E-01   1.00800           0
     19014 MEMB     165      SAPC     H2S      HAL2     0.900000E-01   1.00800           0
     19015 MEMB     165      SAPC     C3       CTL2     0.800000E-01   12.0110           0
     19016 MEMB     165      SAPC     HX       HAL2     0.900000E-01   1.00800           0
     19017 MEMB     165      SAPC     HY       HAL2     0.900000E-01   1.00800           0
     19018 MEMB     165      SAPC     O31      OSL     -0.490000       15.9994           0
     19019 MEMB     165      SAPC     C31      CL       0.900000       12.0110           0
     19020 MEMB     165      SAPC     O32      OBL     -0.630000       15.9994           0
     19021 MEMB     165      SAPC     C32      CTL2    -0.220000       12.0110           0
     19022 MEMB     165      SAPC     H2X      HAL2     0.900000E-01   1.00800           0
     19023 MEMB     165      SAPC     H2Y      HAL2     0.900000E-01   1.00800           0
     19024 MEMB     165      SAPC     C23      CTL2    -0.180000       12.0110           0
     19025 MEMB     165      SAPC     H3R      HAL2     0.900000E-01   1.00800           0
     19026 MEMB     165      SAPC     H3S      HAL2     0.900000E-01   1.00800           0
     19027 MEMB     165      SAPC     C24      CTL2    -0.180000       12.0110           0
     19028 MEMB     165      SAPC     H4R      HAL2     0.900000E-01   1.00800           0
     19029 MEMB     165      SAPC     H4S      HAL2     0.900000E-01   1.00800           0
     19030 MEMB     165      SAPC     C25      CEL1    -0.150000       12.0110           0
     19031 MEMB     165      SAPC     H5R      HEL1     0.150000       1.00800           0
     19032 MEMB     165      SAPC     C26      CEL1    -0.150000       12.0110           0
     19033 MEMB     165      SAPC     H6R      HEL1     0.150000       1.00800           0
     19034 MEMB     165      SAPC     C27      CTL2    -0.180000       12.0110           0
     19035 MEMB     165      SAPC     H7R      HAL2     0.900000E-01   1.00800           0
     19036 MEMB     165      SAPC     H7S      HAL2     0.900000E-01   1.00800           0
     19037 MEMB     165      SAPC     C28      CEL1    -0.150000       12.0110           0
     19038 MEMB     165      SAPC     H8R      HEL1     0.150000       1.00800           0
     19039 MEMB     165      SAPC     C29      CEL1    -0.150000       12.0110           0
     19040 MEMB     165      SAPC     H9R      HEL1     0.150000       1.00800           0
     19041 MEMB     165      SAPC     C210     CTL2    -0.180000       12.0110           0
     19042 MEMB     165      SAPC     H10R     HAL2     0.900000E-01   1.00800           0
     19043 MEMB     165      SAPC     H10S     HAL2     0.900000E-01   1.00800           0
     19044 MEMB     165      SAPC     C211     CEL1    -0.150000       12.0110           0
     19045 MEMB     165      SAPC     H11R     HEL1     0.150000       1.00800           0
     19046 MEMB     165      SAPC     C212     CEL1    -0.150000       12.0110           0
     19047 MEMB     165      SAPC     H12R     HEL1     0.150000       1.00800           0
     19048 MEMB     165      SAPC     C213     CTL2    -0.180000       12.0110           0
     19049 MEMB     165      SAPC     H13R     HAL2     0.900000E-01   1.00800           0
     19050 MEMB     165      SAPC     H13S     HAL2     0.900000E-01   1.00800           0
     19051 MEMB     165      SAPC     C214     CEL1    -0.150000       12.0110           0
     19052 MEMB     165      SAPC     H14R     HEL1     0.150000       1.00800           0
     19053 MEMB     165      SAPC     C215     CEL1    -0.150000       12.0110           0
     19054 MEMB     165      SAPC     H15R     HEL1     0.150000       1.00800           0
     19055 MEMB     165      SAPC     C216     CTL2    -0.180000       12.0110           0
     19056 MEMB     165      SAPC     H16R     HAL2     0.900000E-01   1.00800           0
     19057 MEMB     165      SAPC     H16S     HAL2     0.900000E-01   1.00800           0
     19058 MEMB     165      SAPC     C217     CTL2    -0.180000       12.0110           0
     19059 MEMB     165      SAPC     H17R     HAL2     0.900000E-01   1.00800           0
     19060 MEMB     165      SAPC     H17S     HAL2     0.900000E-01   1.00800           0
     19061 MEMB     165      SAPC     C218     CTL2    -0.270000       12.0110           0
     19062 MEMB     165      SAPC     H18R     HAL2     0.900000E-01   1.00800           0
     19063 MEMB     165      SAPC     H18S     HAL2     0.900000E-01   1.00800           0
     19064 MEMB     165      SAPC     C219     CTL2    -0.180000       12.0110           0
     19065 MEMB     165      SAPC     H19R     HAL2     0.900000E-01   1.00800           0
     19066 MEMB     165      SAPC     H19S     HAL2     0.900000E-01   1.00800           0
     19067 MEMB     165      SAPC     C220     CTL3    -0.180000       12.0110           0
     19068 MEMB     165      SAPC     H20R     HAL3     0.900000E-01   1.00800           0
     19069 MEMB     165      SAPC     H20S     HAL3     0.900000E-01   1.00800           0
     19070 MEMB     165      SAPC     H20T     HAL3     0.900000E-01   1.00800           0
     19071 MEMB     165      SAPC     C33      CTL2    -0.180000       12.0110           0
     19072 MEMB     165      SAPC     H3X      HAL2     0.900000E-01   1.00800           0
     19073 MEMB     165      SAPC     H3Y      HAL2     0.900000E-01   1.00800           0
     19074 MEMB     165      SAPC     C34      CTL2    -0.180000       12.0110           0
     19075 MEMB     165      SAPC     H4X      HAL2     0.900000E-01   1.00800           0
     19076 MEMB     165      SAPC     H4Y      HAL2     0.900000E-01   1.00800           0
     19077 MEMB     165      SAPC     C35      CTL2    -0.180000       12.0110           0
     19078 MEMB     165      SAPC     H5X      HAL2     0.900000E-01   1.00800           0
     19079 MEMB     165      SAPC     H5Y      HAL2     0.900000E-01   1.00800           0
     19080 MEMB     165      SAPC     C36      CTL2    -0.180000       12.0110           0
     19081 MEMB     165      SAPC     H6X      HAL2     0.900000E-01   1.00800           0
     19082 MEMB     165      SAPC     H6Y      HAL2     0.900000E-01   1.00800           0
     19083 MEMB     165      SAPC     C37      CTL2    -0.180000       12.0110           0
     19084 MEMB     165      SAPC     H7X      HAL2     0.900000E-01   1.00800           0
     19085 MEMB     165      SAPC     H7Y      HAL2     0.900000E-01   1.00800           0
     19086 MEMB     165      SAPC     C38      CTL2    -0.180000       12.0110           0
     19087 MEMB     165      SAPC     H8X      HAL2     0.900000E-01   1.00800           0
     19088 MEMB     165      SAPC     H8Y      HAL2     0.900000E-01   1.00800           0
     19089 MEMB     165      SAPC     C39      CTL2    -0.180000       12.0110           0
     19090 MEMB     165      SAPC     H9X      HAL2     0.900000E-01   1.00800           0
     19091 MEMB     165      SAPC     H9Y      HAL2     0.900000E-01   1.00800           0
     19092 MEMB     165      SAPC     C310     CTL2    -0.180000       12.0110           0
     19093 MEMB     165      SAPC     H10X     HAL2     0.900000E-01   1.00800           0
     19094 MEMB     165      SAPC     H10Y     HAL2     0.900000E-01   1.00800           0
     19095 MEMB     165      SAPC     C311     CTL2    -0.180000       12.0110           0
     19096 MEMB     165      SAPC     H11X     HAL2     0.900000E-01   1.00800           0
     19097 MEMB     165      SAPC     H11Y     HAL2     0.900000E-01   1.00800           0
     19098 MEMB     165      SAPC     C312     CTL2    -0.180000       12.0110           0
     19099 MEMB     165      SAPC     H12X     HAL2     0.900000E-01   1.00800           0
     19100 MEMB     165      SAPC     H12Y     HAL2     0.900000E-01   1.00800           0
     19101 MEMB     165      SAPC     C313     CTL2    -0.180000       12.0110           0
     19102 MEMB     165      SAPC     H13X     HAL2     0.900000E-01   1.00800           0
     19103 MEMB     165      SAPC     H13Y     HAL2     0.900000E-01   1.00800           0
     19104 MEMB     165      SAPC     C314     CTL2    -0.180000       12.0110           0
     19105 MEMB     165      SAPC     H14X     HAL2     0.900000E-01   1.00800           0
     19106 MEMB     165      SAPC     H14Y     HAL2     0.900000E-01   1.00800           0
     19107 MEMB     165      SAPC     C315     CTL2    -0.180000       12.0110           0
     19108 MEMB     165      SAPC     H15X     HAL2     0.900000E-01   1.00800           0
     19109 MEMB     165      SAPC     H15Y     HAL2     0.900000E-01   1.00800           0
     19110 MEMB     165      SAPC     C316     CTL2    -0.180000       12.0110           0
     19111 MEMB     165      SAPC     H16X     HAL2     0.900000E-01   1.00800           0
     19112 MEMB     165      SAPC     H16Y     HAL2     0.900000E-01   1.00800           0
     19113 MEMB     165      SAPC     C317     CTL2    -0.180000       12.0110           0
     19114 MEMB     165      SAPC     H17X     HAL2     0.900000E-01   1.00800           0
     19115 MEMB     165      SAPC     H17Y     HAL2     0.900000E-01   1.00800           0
     19116 MEMB     165      SAPC     C318     CTL3    -0.270000       12.0110           0
     19117 MEMB     165      SAPC     H18X     HAL3     0.900000E-01   1.00800           0
     19118 MEMB     165      SAPC     H18Y     HAL3     0.900000E-01   1.00800           0
     19119 MEMB     165      SAPC     H18Z     HAL3     0.900000E-01   1.00800           0
     19120 MEMB     166      SAPS     N        NH3L    -0.300000       14.0070           0
     19121 MEMB     166      SAPS     HN1      HCL      0.330000       1.00800           0
     19122 MEMB     166      SAPS     HN2      HCL      0.330000       1.00800           0
     19123 MEMB     166      SAPS     HN3      HCL      0.330000       1.00800           0
     19124 MEMB     166      SAPS     C12      CTL1     0.210000       12.0110           0
     19125 MEMB     166      SAPS     H12A     HBL      0.100000       1.00800           0
     19126 MEMB     166      SAPS     C13      CCL      0.340000       12.0110           0
     19127 MEMB     166      SAPS     O13A     OCL     -0.670000       15.9994           0
     19128 MEMB     166      SAPS     O13B     OCL     -0.670000       15.9994           0
     19129 MEMB     166      SAPS     C11      CTL2    -0.800000E-01   12.0110           0
     19130 MEMB     166      SAPS     H11A     HAL2     0.900000E-01   1.00800           0
     19131 MEMB     166      SAPS     H11B     HAL2     0.900000E-01   1.00800           0
     19132 MEMB     166      SAPS     P        PL        1.50000       30.9740           0
     19133 MEMB     166      SAPS     O13      O2L     -0.780000       15.9994           0
     19134 MEMB     166      SAPS     O14      O2L     -0.780000       15.9994           0
     19135 MEMB     166      SAPS     O12      OSLP    -0.570000       15.9994           0
     19136 MEMB     166      SAPS     O11      OSLP    -0.570000       15.9994           0
     19137 MEMB     166      SAPS     C1       CTL2    -0.800000E-01   12.0110           0
     19138 MEMB     166      SAPS     HA       HAL2     0.900000E-01   1.00800           0
     19139 MEMB     166      SAPS     HB       HAL2     0.900000E-01   1.00800           0
     19140 MEMB     166      SAPS     C2       CTL1     0.170000       12.0110           0
     19141 MEMB     166      SAPS     HS       HAL1     0.900000E-01   1.00800           0
     19142 MEMB     166      SAPS     O21      OSL     -0.490000       15.9994           0
     19143 MEMB     166      SAPS     C21      CL       0.900000       12.0110           0
     19144 MEMB     166      SAPS     O22      OBL     -0.630000       15.9994           0
     19145 MEMB     166      SAPS     C22      CTL2    -0.220000       12.0110           0
     19146 MEMB     166      SAPS     H2R      HAL2     0.900000E-01   1.00800           0
     19147 MEMB     166      SAPS     H2S      HAL2     0.900000E-01   1.00800           0
     19148 MEMB     166      SAPS     C3       CTL2     0.800000E-01   12.0110           0
     19149 MEMB     166      SAPS     HX       HAL2     0.900000E-01   1.00800           0
     19150 MEMB     166      SAPS     HY       HAL2     0.900000E-01   1.00800           0
     19151 MEMB     166      SAPS     O31      OSL     -0.490000       15.9994           0
     19152 MEMB     166      SAPS     C31      CL       0.900000       12.0110           0
     19153 MEMB     166      SAPS     O32      OBL     -0.630000       15.9994           0
     19154 MEMB     166      SAPS     C32      CTL2    -0.220000       12.0110           0
     19155 MEMB     166      SAPS     H2X      HAL2     0.900000E-01   1.00800           0
     19156 MEMB     166      SAPS     H2Y      HAL2     0.900000E-01   1.00800           0
     19157 MEMB     166      SAPS     C23      CTL2    -0.180000       12.0110           0
     19158 MEMB     166      SAPS     H3R      HAL2     0.900000E-01   1.00800           0
     19159 MEMB     166      SAPS     H3S      HAL2     0.900000E-01   1.00800           0
     19160 MEMB     166      SAPS     C24      CTL2    -0.180000       12.0110           0
     19161 MEMB     166      SAPS     H4R      HAL2     0.900000E-01   1.00800           0
     19162 MEMB     166      SAPS     H4S      HAL2     0.900000E-01   1.00800           0
     19163 MEMB     166      SAPS     C25      CEL1    -0.150000       12.0110           0
     19164 MEMB     166      SAPS     H5R      HEL1     0.150000       1.00800           0
     19165 MEMB     166      SAPS     C26      CEL1    -0.150000       12.0110           0
     19166 MEMB     166      SAPS     H6R      HEL1     0.150000       1.00800           0
     19167 MEMB     166      SAPS     C27      CTL2    -0.180000       12.0110           0
     19168 MEMB     166      SAPS     H7R      HAL2     0.900000E-01   1.00800           0
     19169 MEMB     166      SAPS     H7S      HAL2     0.900000E-01   1.00800           0
     19170 MEMB     166      SAPS     C28      CEL1    -0.150000       12.0110           0
     19171 MEMB     166      SAPS     H8R      HEL1     0.150000       1.00800           0
     19172 MEMB     166      SAPS     C29      CEL1    -0.150000       12.0110           0
     19173 MEMB     166      SAPS     H9R      HEL1     0.150000       1.00800           0
     19174 MEMB     166      SAPS     C210     CTL2    -0.180000       12.0110           0
     19175 MEMB     166      SAPS     H10R     HAL2     0.900000E-01   1.00800           0
     19176 MEMB     166      SAPS     H10S     HAL2     0.900000E-01   1.00800           0
     19177 MEMB     166      SAPS     C211     CEL1    -0.150000       12.0110           0
     19178 MEMB     166      SAPS     H11R     HEL1     0.150000       1.00800           0
     19179 MEMB     166      SAPS     C212     CEL1    -0.150000       12.0110           0
     19180 MEMB     166      SAPS     H12R     HEL1     0.150000       1.00800           0
     19181 MEMB     166      SAPS     C213     CTL2    -0.180000       12.0110           0
     19182 MEMB     166      SAPS     H13R     HAL2     0.900000E-01   1.00800           0
     19183 MEMB     166      SAPS     H13S     HAL2     0.900000E-01   1.00800           0
     19184 MEMB     166      SAPS     C214     CEL1    -0.150000       12.0110           0
     19185 MEMB     166      SAPS     H14R     HEL1     0.150000       1.00800           0
     19186 MEMB     166      SAPS     C215     CEL1    -0.150000       12.0110           0
     19187 MEMB     166      SAPS     H15R     HEL1     0.150000       1.00800           0
     19188 MEMB     166      SAPS     C216     CTL2    -0.180000       12.0110           0
     19189 MEMB     166      SAPS     H16R     HAL2     0.900000E-01   1.00800           0
     19190 MEMB     166      SAPS     H16S     HAL2     0.900000E-01   1.00800           0
     19191 MEMB     166      SAPS     C217     CTL2    -0.180000       12.0110           0
     19192 MEMB     166      SAPS     H17R     HAL2     0.900000E-01   1.00800           0
     19193 MEMB     166      SAPS     H17S     HAL2     0.900000E-01   1.00800           0
     19194 MEMB     166      SAPS     C218     CTL2    -0.180000       12.0110           0
     19195 MEMB     166      SAPS     H18R     HAL2     0.900000E-01   1.00800           0
     19196 MEMB     166      SAPS     H18S     HAL2     0.900000E-01   1.00800           0
     19197 MEMB     166      SAPS     C219     CTL2    -0.180000       12.0110           0
     19198 MEMB     166      SAPS     H19R     HAL2     0.900000E-01   1.00800           0
     19199 MEMB     166      SAPS     H19S     HAL2     0.900000E-01   1.00800           0
     19200 MEMB     166      SAPS     C220     CTL3    -0.270000       12.0110           0
     19201 MEMB     166      SAPS     H20R     HAL3     0.900000E-01   1.00800           0
     19202 MEMB     166      SAPS     H20S     HAL3     0.900000E-01   1.00800           0
     19203 MEMB     166      SAPS     H20T     HAL3     0.900000E-01   1.00800           0
     19204 MEMB     166      SAPS     C33      CTL2    -0.180000       12.0110           0
     19205 MEMB     166      SAPS     H3X      HAL2     0.900000E-01   1.00800           0
     19206 MEMB     166      SAPS     H3Y      HAL2     0.900000E-01   1.00800           0
     19207 MEMB     166      SAPS     C34      CTL2    -0.180000       12.0110           0
     19208 MEMB     166      SAPS     H4X      HAL2     0.900000E-01   1.00800           0
     19209 MEMB     166      SAPS     H4Y      HAL2     0.900000E-01   1.00800           0
     19210 MEMB     166      SAPS     C35      CTL2    -0.180000       12.0110           0
     19211 MEMB     166      SAPS     H5X      HAL2     0.900000E-01   1.00800           0
     19212 MEMB     166      SAPS     H5Y      HAL2     0.900000E-01   1.00800           0
     19213 MEMB     166      SAPS     C36      CTL2    -0.180000       12.0110           0
     19214 MEMB     166      SAPS     H6X      HAL2     0.900000E-01   1.00800           0
     19215 MEMB     166      SAPS     H6Y      HAL2     0.900000E-01   1.00800           0
     19216 MEMB     166      SAPS     C37      CTL2    -0.180000       12.0110           0
     19217 MEMB     166      SAPS     H7X      HAL2     0.900000E-01   1.00800           0
     19218 MEMB     166      SAPS     H7Y      HAL2     0.900000E-01   1.00800           0
     19219 MEMB     166      SAPS     C38      CTL2    -0.180000       12.0110           0
     19220 MEMB     166      SAPS     H8X      HAL2     0.900000E-01   1.00800           0
     19221 MEMB     166      SAPS     H8Y      HAL2     0.900000E-01   1.00800           0
     19222 MEMB     166      SAPS     C39      CTL2    -0.180000       12.0110           0
     19223 MEMB     166      SAPS     H9X      HAL2     0.900000E-01   1.00800           0
     19224 MEMB     166      SAPS     H9Y      HAL2     0.900000E-01   1.00800           0
     19225 MEMB     166      SAPS     C310     CTL2    -0.180000       12.0110           0
     19226 MEMB     166      SAPS     H10X     HAL2     0.900000E-01   1.00800           0
     19227 MEMB     166      SAPS     H10Y     HAL2     0.900000E-01   1.00800           0
     19228 MEMB     166      SAPS     C311     CTL2    -0.180000       12.0110           0
     19229 MEMB     166      SAPS     H11X     HAL2     0.900000E-01   1.00800           0
     19230 MEMB     166      SAPS     H11Y     HAL2     0.900000E-01   1.00800           0
     19231 MEMB     166      SAPS     C312     CTL2    -0.180000       12.0110           0
     19232 MEMB     166      SAPS     H12X     HAL2     0.900000E-01   1.00800           0
     19233 MEMB     166      SAPS     H12Y     HAL2     0.900000E-01   1.00800           0
     19234 MEMB     166      SAPS     C313     CTL2    -0.180000       12.0110           0
     19235 MEMB     166      SAPS     H13X     HAL2     0.900000E-01   1.00800           0
     19236 MEMB     166      SAPS     H13Y     HAL2     0.900000E-01   1.00800           0
     19237 MEMB     166      SAPS     C314     CTL2    -0.180000       12.0110           0
     19238 MEMB     166      SAPS     H14X     HAL2     0.900000E-01   1.00800           0
     19239 MEMB     166      SAPS     H14Y     HAL2     0.900000E-01   1.00800           0
     19240 MEMB     166      SAPS     C315     CTL2    -0.180000       12.0110           0
     19241 MEMB     166      SAPS     H15X     HAL2     0.900000E-01   1.00800           0
     19242 MEMB     166      SAPS     H15Y     HAL2     0.900000E-01   1.00800           0
     19243 MEMB     166      SAPS     C316     CTL2    -0.180000       12.0110           0
     19244 MEMB     166      SAPS     H16X     HAL2     0.900000E-01   1.00800           0
     19245 MEMB     166      SAPS     H16Y     HAL2     0.900000E-01   1.00800           0
     19246 MEMB     166      SAPS     C317     CTL2    -0.180000       12.0110           0
     19247 MEMB     166      SAPS     H17X     HAL2     0.900000E-01   1.00800           0
     19248 MEMB     166      SAPS     H17Y     HAL2     0.900000E-01   1.00800           0
     19249 MEMB     166      SAPS     C318     CTL3    -0.270000       12.0110           0
     19250 MEMB     166      SAPS     H18X     HAL3     0.900000E-01   1.00800           0
     19251 MEMB     166      SAPS     H18Y     HAL3     0.900000E-01   1.00800           0
     19252 MEMB     166      SAPS     H18Z     HAL3     0.900000E-01   1.00800           0
     19253 MEMB     167      CHL1     C3       CRL1     0.140000       12.0110           0
     19254 MEMB     167      CHL1     H3       HGA1     0.900000E-01   1.00800           0
     19255 MEMB     167      CHL1     O3       OHL     -0.660000       15.9994           0
     19256 MEMB     167      CHL1     H3'      HOL      0.430000       1.00800           0
     19257 MEMB     167      CHL1     C4       CRL2    -0.180000       12.0110           0
     19258 MEMB     167      CHL1     H4A      HGA2     0.900000E-01   1.00800           0
     19259 MEMB     167      CHL1     H4B      HGA2     0.900000E-01   1.00800           0
     19260 MEMB     167      CHL1     C5       CEL1      0.00000       12.0110           0
     19261 MEMB     167      CHL1     C6       CEL1    -0.150000       12.0110           0
     19262 MEMB     167      CHL1     H6       HEL1     0.150000       1.00800           0
     19263 MEMB     167      CHL1     C7       CRL2    -0.180000       12.0110           0
     19264 MEMB     167      CHL1     H7A      HGA2     0.900000E-01   1.00800           0
     19265 MEMB     167      CHL1     H7B      HGA2     0.900000E-01   1.00800           0
     19266 MEMB     167      CHL1     C8       CRL1    -0.900000E-01   12.0110           0
     19267 MEMB     167      CHL1     H8       HGA1     0.900000E-01   1.00800           0
     19268 MEMB     167      CHL1     C14      CRL1    -0.900000E-01   12.0110           0
     19269 MEMB     167      CHL1     H14      HGA1     0.900000E-01   1.00800           0
     19270 MEMB     167      CHL1     C15      CRL2    -0.180000       12.0110           0
     19271 MEMB     167      CHL1     H15A     HGA2     0.900000E-01   1.00800           0
     19272 MEMB     167      CHL1     H15B     HGA2     0.900000E-01   1.00800           0
     19273 MEMB     167      CHL1     C16      CRL2    -0.180000       12.0110           0
     19274 MEMB     167      CHL1     H16A     HGA2     0.900000E-01   1.00800           0
     19275 MEMB     167      CHL1     H16B     HGA2     0.900000E-01   1.00800           0
     19276 MEMB     167      CHL1     C17      CRL1    -0.900000E-01   12.0110           0
     19277 MEMB     167      CHL1     H17      HGA1     0.900000E-01   1.00800           0
     19278 MEMB     167      CHL1     C13      CRL1      0.00000       12.0110           0
     19279 MEMB     167      CHL1     C18      CTL3    -0.270000       12.0110           0
     19280 MEMB     167      CHL1     H18A     HAL3     0.900000E-01   1.00800           0
     19281 MEMB     167      CHL1     H18B     HAL3     0.900000E-01   1.00800           0
     19282 MEMB     167      CHL1     H18C     HAL3     0.900000E-01   1.00800           0
     19283 MEMB     167      CHL1     C12      CRL2    -0.180000       12.0110           0
     19284 MEMB     167      CHL1     H12A     HGA2     0.900000E-01   1.00800           0
     19285 MEMB     167      CHL1     H12B     HGA2     0.900000E-01   1.00800           0
     19286 MEMB     167      CHL1     C11      CRL2    -0.180000       12.0110           0
     19287 MEMB     167      CHL1     H11A     HGA2     0.900000E-01   1.00800           0
     19288 MEMB     167      CHL1     H11B     HGA2     0.900000E-01   1.00800           0
     19289 MEMB     167      CHL1     C9       CRL1    -0.900000E-01   12.0110           0
     19290 MEMB     167      CHL1     H9       HGA1     0.900000E-01   1.00800           0
     19291 MEMB     167      CHL1     C10      CRL1      0.00000       12.0110           0
     19292 MEMB     167      CHL1     C19      CTL3    -0.270000       12.0110           0
     19293 MEMB     167      CHL1     H19A     HAL3     0.900000E-01   1.00800           0
     19294 MEMB     167      CHL1     H19B     HAL3     0.900000E-01   1.00800           0
     19295 MEMB     167      CHL1     H19C     HAL3     0.900000E-01   1.00800           0
     19296 MEMB     167      CHL1     C1       CRL2    -0.180000       12.0110           0
     19297 MEMB     167      CHL1     H1A      HGA2     0.900000E-01   1.00800           0
     19298 MEMB     167      CHL1     H1B      HGA2     0.900000E-01   1.00800           0
     19299 MEMB     167      CHL1     C2       CRL2    -0.180000       12.0110           0
     19300 MEMB     167      CHL1     H2A      HGA2     0.900000E-01   1.00800           0
     19301 MEMB     167      CHL1     H2B      HGA2     0.900000E-01   1.00800           0
     19302 MEMB     167      CHL1     C20      CTL1    -0.900000E-01   12.0110           0
     19303 MEMB     167      CHL1     H20      HAL1     0.900000E-01   1.00800           0
     19304 MEMB     167      CHL1     C21      CTL3    -0.270000       12.0110           0
     19305 MEMB     167      CHL1     H21A     HAL3     0.900000E-01   1.00800           0
     19306 MEMB     167      CHL1     H21B     HAL3     0.900000E-01   1.00800           0
     19307 MEMB     167      CHL1     H21C     HAL3     0.900000E-01   1.00800           0
     19308 MEMB     167      CHL1     C22      CTL2    -0.180000       12.0110           0
     19309 MEMB     167      CHL1     H22A     HAL2     0.900000E-01   1.00800           0
     19310 MEMB     167      CHL1     H22B     HAL2     0.900000E-01   1.00800           0
     19311 MEMB     167      CHL1     C23      CTL2    -0.180000       12.0110           0
     19312 MEMB     167      CHL1     H23A     HAL2     0.900000E-01   1.00800           0
     19313 MEMB     167      CHL1     H23B     HAL2     0.900000E-01   1.00800           0
     19314 MEMB     167      CHL1     C24      CTL2    -0.180000       12.0110           0
     19315 MEMB     167      CHL1     H24A     HAL2     0.900000E-01   1.00800           0
     19316 MEMB     167      CHL1     H24B     HAL2     0.900000E-01   1.00800           0
     19317 MEMB     167      CHL1     C25      CTL1    -0.900000E-01   12.0110           0
     19318 MEMB     167      CHL1     H25      HAL1     0.900000E-01   1.00800           0
     19319 MEMB     167      CHL1     C26      CTL3    -0.270000       12.0110           0
     19320 MEMB     167      CHL1     H26A     HAL3     0.900000E-01   1.00800           0
     19321 MEMB     167      CHL1     H26B     HAL3     0.900000E-01   1.00800           0
     19322 MEMB     167      CHL1     H26C     HAL3     0.900000E-01   1.00800           0
     19323 MEMB     167      CHL1     C27      CTL3    -0.270000       12.0110           0
     19324 MEMB     167      CHL1     H27A     HAL3     0.900000E-01   1.00800           0
     19325 MEMB     167      CHL1     H27B     HAL3     0.900000E-01   1.00800           0
     19326 MEMB     167      CHL1     H27C     HAL3     0.900000E-01   1.00800           0
     19327 MEMB     168      SOPE     N        NH3L    -0.300000       14.0070           0
     19328 MEMB     168      SOPE     HN1      HCL      0.330000       1.00800           0
     19329 MEMB     168      SOPE     HN2      HCL      0.330000       1.00800           0
     19330 MEMB     168      SOPE     HN3      HCL      0.330000       1.00800           0
     19331 MEMB     168      SOPE     C12      CTL2     0.130000       12.0110           0
     19332 MEMB     168      SOPE     H12A     HAL2     0.900000E-01   1.00800           0
     19333 MEMB     168      SOPE     H12B     HAL2     0.900000E-01   1.00800           0
     19334 MEMB     168      SOPE     C11      CTL2    -0.800000E-01   12.0110           0
     19335 MEMB     168      SOPE     H11A     HAL2     0.900000E-01   1.00800           0
     19336 MEMB     168      SOPE     H11B     HAL2     0.900000E-01   1.00800           0
     19337 MEMB     168      SOPE     P        PL        1.50000       30.9740           0
     19338 MEMB     168      SOPE     O13      O2L     -0.780000       15.9994           0
     19339 MEMB     168      SOPE     O14      O2L     -0.780000       15.9994           0
     19340 MEMB     168      SOPE     O12      OSLP    -0.570000       15.9994           0
     19341 MEMB     168      SOPE     O11      OSLP    -0.570000       15.9994           0
     19342 MEMB     168      SOPE     C1       CTL2    -0.800000E-01   12.0110           0
     19343 MEMB     168      SOPE     HA       HAL2     0.900000E-01   1.00800           0
     19344 MEMB     168      SOPE     HB       HAL2     0.900000E-01   1.00800           0
     19345 MEMB     168      SOPE     C2       CTL1     0.170000       12.0110           0
     19346 MEMB     168      SOPE     HS       HAL1     0.900000E-01   1.00800           0
     19347 MEMB     168      SOPE     O21      OSL     -0.490000       15.9994           0
     19348 MEMB     168      SOPE     C21      CL       0.900000       12.0110           0
     19349 MEMB     168      SOPE     O22      OBL     -0.630000       15.9994           0
     19350 MEMB     168      SOPE     C22      CTL2    -0.220000       12.0110           0
     19351 MEMB     168      SOPE     H2R      HAL2     0.900000E-01   1.00800           0
     19352 MEMB     168      SOPE     H2S      HAL2     0.900000E-01   1.00800           0
     19353 MEMB     168      SOPE     C3       CTL2     0.800000E-01   12.0110           0
     19354 MEMB     168      SOPE     HX       HAL2     0.900000E-01   1.00800           0
     19355 MEMB     168      SOPE     HY       HAL2     0.900000E-01   1.00800           0
     19356 MEMB     168      SOPE     O31      OSL     -0.490000       15.9994           0
     19357 MEMB     168      SOPE     C31      CL       0.900000       12.0110           0
     19358 MEMB     168      SOPE     O32      OBL     -0.630000       15.9994           0
     19359 MEMB     168      SOPE     C32      CTL2    -0.220000       12.0110           0
     19360 MEMB     168      SOPE     H2X      HAL2     0.900000E-01   1.00800           0
     19361 MEMB     168      SOPE     H2Y      HAL2     0.900000E-01   1.00800           0
     19362 MEMB     168      SOPE     C23      CTL2    -0.180000       12.0110           0
     19363 MEMB     168      SOPE     H3R      HAL2     0.900000E-01   1.00800           0
     19364 MEMB     168      SOPE     H3S      HAL2     0.900000E-01   1.00800           0
     19365 MEMB     168      SOPE     C24      CTL2    -0.180000       12.0110           0
     19366 MEMB     168      SOPE     H4R      HAL2     0.900000E-01   1.00800           0
     19367 MEMB     168      SOPE     H4S      HAL2     0.900000E-01   1.00800           0
     19368 MEMB     168      SOPE     C25      CTL2    -0.180000       12.0110           0
     19369 MEMB     168      SOPE     H5R      HAL2     0.900000E-01   1.00800           0
     19370 MEMB     168      SOPE     H5S      HAL2     0.900000E-01   1.00800           0
     19371 MEMB     168      SOPE     C26      CTL2    -0.180000       12.0110           0
     19372 MEMB     168      SOPE     H6R      HAL2     0.900000E-01   1.00800           0
     19373 MEMB     168      SOPE     H6S      HAL2     0.900000E-01   1.00800           0
     19374 MEMB     168      SOPE     C27      CTL2    -0.180000       12.0110           0
     19375 MEMB     168      SOPE     H7R      HAL2     0.900000E-01   1.00800           0
     19376 MEMB     168      SOPE     H7S      HAL2     0.900000E-01   1.00800           0
     19377 MEMB     168      SOPE     C28      CTL2    -0.180000       12.0110           0
     19378 MEMB     168      SOPE     H8R      HAL2     0.900000E-01   1.00800           0
     19379 MEMB     168      SOPE     H8S      HAL2     0.900000E-01   1.00800           0
     19380 MEMB     168      SOPE     C29      CEL1    -0.150000       12.0110           0
     19381 MEMB     168      SOPE     H91      HEL1     0.150000       1.00800           0
     19382 MEMB     168      SOPE     C210     CEL1    -0.150000       12.0110           0
     19383 MEMB     168      SOPE     H101     HEL1     0.150000       1.00800           0
     19384 MEMB     168      SOPE     C211     CTL2    -0.180000       12.0110           0
     19385 MEMB     168      SOPE     H11R     HAL2     0.900000E-01   1.00800           0
     19386 MEMB     168      SOPE     H11S     HAL2     0.900000E-01   1.00800           0
     19387 MEMB     168      SOPE     C212     CTL2    -0.180000       12.0110           0
     19388 MEMB     168      SOPE     H12R     HAL2     0.900000E-01   1.00800           0
     19389 MEMB     168      SOPE     H12S     HAL2     0.900000E-01   1.00800           0
     19390 MEMB     168      SOPE     C213     CTL2    -0.180000       12.0110           0
     19391 MEMB     168      SOPE     H13R     HAL2     0.900000E-01   1.00800           0
     19392 MEMB     168      SOPE     H13S     HAL2     0.900000E-01   1.00800           0
     19393 MEMB     168      SOPE     C214     CTL2    -0.180000       12.0110           0
     19394 MEMB     168      SOPE     H14R     HAL2     0.900000E-01   1.00800           0
     19395 MEMB     168      SOPE     H14S     HAL2     0.900000E-01   1.00800           0
     19396 MEMB     168      SOPE     C215     CTL2    -0.180000       12.0110           0
     19397 MEMB     168      SOPE     H15R     HAL2     0.900000E-01   1.00800           0
     19398 MEMB     168      SOPE     H15S     HAL2     0.900000E-01   1.00800           0
     19399 MEMB     168      SOPE     C216     CTL2    -0.180000       12.0110           0
     19400 MEMB     168      SOPE     H16R     HAL2     0.900000E-01   1.00800           0
     19401 MEMB     168      SOPE     H16S     HAL2     0.900000E-01   1.00800           0
     19402 MEMB     168      SOPE     C217     CTL2    -0.180000       12.0110           0
     19403 MEMB     168      SOPE     H17R     HAL2     0.900000E-01   1.00800           0
     19404 MEMB     168      SOPE     H17S     HAL2     0.900000E-01   1.00800           0
     19405 MEMB     168      SOPE     C218     CTL3    -0.270000       12.0110           0
     19406 MEMB     168      SOPE     H18R     HAL3     0.900000E-01   1.00800           0
     19407 MEMB     168      SOPE     H18S     HAL3     0.900000E-01   1.00800           0
     19408 MEMB     168      SOPE     H18T     HAL3     0.900000E-01   1.00800           0
     19409 MEMB     168      SOPE     C33      CTL2    -0.180000       12.0110           0
     19410 MEMB     168      SOPE     H3X      HAL2     0.900000E-01   1.00800           0
     19411 MEMB     168      SOPE     H3Y      HAL2     0.900000E-01   1.00800           0
     19412 MEMB     168      SOPE     C34      CTL2    -0.180000       12.0110           0
     19413 MEMB     168      SOPE     H4X      HAL2     0.900000E-01   1.00800           0
     19414 MEMB     168      SOPE     H4Y      HAL2     0.900000E-01   1.00800           0
     19415 MEMB     168      SOPE     C35      CTL2    -0.180000       12.0110           0
     19416 MEMB     168      SOPE     H5X      HAL2     0.900000E-01   1.00800           0
     19417 MEMB     168      SOPE     H5Y      HAL2     0.900000E-01   1.00800           0
     19418 MEMB     168      SOPE     C36      CTL2    -0.180000       12.0110           0
     19419 MEMB     168      SOPE     H6X      HAL2     0.900000E-01   1.00800           0
     19420 MEMB     168      SOPE     H6Y      HAL2     0.900000E-01   1.00800           0
     19421 MEMB     168      SOPE     C37      CTL2    -0.180000       12.0110           0
     19422 MEMB     168      SOPE     H7X      HAL2     0.900000E-01   1.00800           0
     19423 MEMB     168      SOPE     H7Y      HAL2     0.900000E-01   1.00800           0
     19424 MEMB     168      SOPE     C38      CTL2    -0.180000       12.0110           0
     19425 MEMB     168      SOPE     H8X      HAL2     0.900000E-01   1.00800           0
     19426 MEMB     168      SOPE     H8Y      HAL2     0.900000E-01   1.00800           0
     19427 MEMB     168      SOPE     C39      CTL2    -0.180000       12.0110           0
     19428 MEMB     168      SOPE     H9X      HAL2     0.900000E-01   1.00800           0
     19429 MEMB     168      SOPE     H9Y      HAL2     0.900000E-01   1.00800           0
     19430 MEMB     168      SOPE     C310     CTL2    -0.180000       12.0110           0
     19431 MEMB     168      SOPE     H10X     HAL2     0.900000E-01   1.00800           0
     19432 MEMB     168      SOPE     H10Y     HAL2     0.900000E-01   1.00800           0
     19433 MEMB     168      SOPE     C311     CTL2    -0.180000       12.0110           0
     19434 MEMB     168      SOPE     H11X     HAL2     0.900000E-01   1.00800           0
     19435 MEMB     168      SOPE     H11Y     HAL2     0.900000E-01   1.00800           0
     19436 MEMB     168      SOPE     C312     CTL2    -0.180000       12.0110           0
     19437 MEMB     168      SOPE     H12X     HAL2     0.900000E-01   1.00800           0
     19438 MEMB     168      SOPE     H12Y     HAL2     0.900000E-01   1.00800           0
     19439 MEMB     168      SOPE     C313     CTL2    -0.180000       12.0110           0
     19440 MEMB     168      SOPE     H13X     HAL2     0.900000E-01   1.00800           0
     19441 MEMB     168      SOPE     H13Y     HAL2     0.900000E-01   1.00800           0
     19442 MEMB     168      SOPE     C314     CTL2    -0.180000       12.0110           0
     19443 MEMB     168      SOPE     H14X     HAL2     0.900000E-01   1.00800           0
     19444 MEMB     168      SOPE     H14Y     HAL2     0.900000E-01   1.00800           0
     19445 MEMB     168      SOPE     C315     CTL2    -0.180000       12.0110           0
     19446 MEMB     168      SOPE     H15X     HAL2     0.900000E-01   1.00800           0
     19447 MEMB     168      SOPE     H15Y     HAL2     0.900000E-01   1.00800           0
     19448 MEMB     168      SOPE     C316     CTL2    -0.180000       12.0110           0
     19449 MEMB     168      SOPE     H16X     HAL2     0.900000E-01   1.00800           0
     19450 MEMB     168      SOPE     H16Y     HAL2     0.900000E-01   1.00800           0
     19451 MEMB     168      SOPE     C317     CTL2    -0.180000       12.0110           0
     19452 MEMB     168      SOPE     H17X     HAL2     0.900000E-01   1.00800           0
     19453 MEMB     168      SOPE     H17Y     HAL2     0.900000E-01   1.00800           0
     19454 MEMB     168      SOPE     C318     CTL3    -0.270000       12.0110           0
     19455 MEMB     168      SOPE     H18X     HAL3     0.900000E-01   1.00800           0
     19456 MEMB     168      SOPE     H18Y     HAL3     0.900000E-01   1.00800           0
     19457 MEMB     168      SOPE     H18Z     HAL3     0.900000E-01   1.00800           0
     19458 MEMB     169      SAPS     N        NH3L    -0.300000       14.0070           0
     19459 MEMB     169      SAPS     HN1      HCL      0.330000       1.00800           0
     19460 MEMB     169      SAPS     HN2      HCL      0.330000       1.00800           0
     19461 MEMB     169      SAPS     HN3      HCL      0.330000       1.00800           0
     19462 MEMB     169      SAPS     C12      CTL1     0.210000       12.0110           0
     19463 MEMB     169      SAPS     H12A     HBL      0.100000       1.00800           0
     19464 MEMB     169      SAPS     C13      CCL      0.340000       12.0110           0
     19465 MEMB     169      SAPS     O13A     OCL     -0.670000       15.9994           0
     19466 MEMB     169      SAPS     O13B     OCL     -0.670000       15.9994           0
     19467 MEMB     169      SAPS     C11      CTL2    -0.800000E-01   12.0110           0
     19468 MEMB     169      SAPS     H11A     HAL2     0.900000E-01   1.00800           0
     19469 MEMB     169      SAPS     H11B     HAL2     0.900000E-01   1.00800           0
     19470 MEMB     169      SAPS     P        PL        1.50000       30.9740           0
     19471 MEMB     169      SAPS     O13      O2L     -0.780000       15.9994           0
     19472 MEMB     169      SAPS     O14      O2L     -0.780000       15.9994           0
     19473 MEMB     169      SAPS     O12      OSLP    -0.570000       15.9994           0
     19474 MEMB     169      SAPS     O11      OSLP    -0.570000       15.9994           0
     19475 MEMB     169      SAPS     C1       CTL2    -0.800000E-01   12.0110           0
     19476 MEMB     169      SAPS     HA       HAL2     0.900000E-01   1.00800           0
     19477 MEMB     169      SAPS     HB       HAL2     0.900000E-01   1.00800           0
     19478 MEMB     169      SAPS     C2       CTL1     0.170000       12.0110           0
     19479 MEMB     169      SAPS     HS       HAL1     0.900000E-01   1.00800           0
     19480 MEMB     169      SAPS     O21      OSL     -0.490000       15.9994           0
     19481 MEMB     169      SAPS     C21      CL       0.900000       12.0110           0
     19482 MEMB     169      SAPS     O22      OBL     -0.630000       15.9994           0
     19483 MEMB     169      SAPS     C22      CTL2    -0.220000       12.0110           0
     19484 MEMB     169      SAPS     H2R      HAL2     0.900000E-01   1.00800           0
     19485 MEMB     169      SAPS     H2S      HAL2     0.900000E-01   1.00800           0
     19486 MEMB     169      SAPS     C3       CTL2     0.800000E-01   12.0110           0
     19487 MEMB     169      SAPS     HX       HAL2     0.900000E-01   1.00800           0
     19488 MEMB     169      SAPS     HY       HAL2     0.900000E-01   1.00800           0
     19489 MEMB     169      SAPS     O31      OSL     -0.490000       15.9994           0
     19490 MEMB     169      SAPS     C31      CL       0.900000       12.0110           0
     19491 MEMB     169      SAPS     O32      OBL     -0.630000       15.9994           0
     19492 MEMB     169      SAPS     C32      CTL2    -0.220000       12.0110           0
     19493 MEMB     169      SAPS     H2X      HAL2     0.900000E-01   1.00800           0
     19494 MEMB     169      SAPS     H2Y      HAL2     0.900000E-01   1.00800           0
     19495 MEMB     169      SAPS     C23      CTL2    -0.180000       12.0110           0
     19496 MEMB     169      SAPS     H3R      HAL2     0.900000E-01   1.00800           0
     19497 MEMB     169      SAPS     H3S      HAL2     0.900000E-01   1.00800           0
     19498 MEMB     169      SAPS     C24      CTL2    -0.180000       12.0110           0
     19499 MEMB     169      SAPS     H4R      HAL2     0.900000E-01   1.00800           0
     19500 MEMB     169      SAPS     H4S      HAL2     0.900000E-01   1.00800           0
     19501 MEMB     169      SAPS     C25      CEL1    -0.150000       12.0110           0
     19502 MEMB     169      SAPS     H5R      HEL1     0.150000       1.00800           0
     19503 MEMB     169      SAPS     C26      CEL1    -0.150000       12.0110           0
     19504 MEMB     169      SAPS     H6R      HEL1     0.150000       1.00800           0
     19505 MEMB     169      SAPS     C27      CTL2    -0.180000       12.0110           0
     19506 MEMB     169      SAPS     H7R      HAL2     0.900000E-01   1.00800           0
     19507 MEMB     169      SAPS     H7S      HAL2     0.900000E-01   1.00800           0
     19508 MEMB     169      SAPS     C28      CEL1    -0.150000       12.0110           0
     19509 MEMB     169      SAPS     H8R      HEL1     0.150000       1.00800           0
     19510 MEMB     169      SAPS     C29      CEL1    -0.150000       12.0110           0
     19511 MEMB     169      SAPS     H9R      HEL1     0.150000       1.00800           0
     19512 MEMB     169      SAPS     C210     CTL2    -0.180000       12.0110           0
     19513 MEMB     169      SAPS     H10R     HAL2     0.900000E-01   1.00800           0
     19514 MEMB     169      SAPS     H10S     HAL2     0.900000E-01   1.00800           0
     19515 MEMB     169      SAPS     C211     CEL1    -0.150000       12.0110           0
     19516 MEMB     169      SAPS     H11R     HEL1     0.150000       1.00800           0
     19517 MEMB     169      SAPS     C212     CEL1    -0.150000       12.0110           0
     19518 MEMB     169      SAPS     H12R     HEL1     0.150000       1.00800           0
     19519 MEMB     169      SAPS     C213     CTL2    -0.180000       12.0110           0
     19520 MEMB     169      SAPS     H13R     HAL2     0.900000E-01   1.00800           0
     19521 MEMB     169      SAPS     H13S     HAL2     0.900000E-01   1.00800           0
     19522 MEMB     169      SAPS     C214     CEL1    -0.150000       12.0110           0
     19523 MEMB     169      SAPS     H14R     HEL1     0.150000       1.00800           0
     19524 MEMB     169      SAPS     C215     CEL1    -0.150000       12.0110           0
     19525 MEMB     169      SAPS     H15R     HEL1     0.150000       1.00800           0
     19526 MEMB     169      SAPS     C216     CTL2    -0.180000       12.0110           0
     19527 MEMB     169      SAPS     H16R     HAL2     0.900000E-01   1.00800           0
     19528 MEMB     169      SAPS     H16S     HAL2     0.900000E-01   1.00800           0
     19529 MEMB     169      SAPS     C217     CTL2    -0.180000       12.0110           0
     19530 MEMB     169      SAPS     H17R     HAL2     0.900000E-01   1.00800           0
     19531 MEMB     169      SAPS     H17S     HAL2     0.900000E-01   1.00800           0
     19532 MEMB     169      SAPS     C218     CTL2    -0.180000       12.0110           0
     19533 MEMB     169      SAPS     H18R     HAL2     0.900000E-01   1.00800           0
     19534 MEMB     169      SAPS     H18S     HAL2     0.900000E-01   1.00800           0
     19535 MEMB     169      SAPS     C219     CTL2    -0.180000       12.0110           0
     19536 MEMB     169      SAPS     H19R     HAL2     0.900000E-01   1.00800           0
     19537 MEMB     169      SAPS     H19S     HAL2     0.900000E-01   1.00800           0
     19538 MEMB     169      SAPS     C220     CTL3    -0.270000       12.0110           0
     19539 MEMB     169      SAPS     H20R     HAL3     0.900000E-01   1.00800           0
     19540 MEMB     169      SAPS     H20S     HAL3     0.900000E-01   1.00800           0
     19541 MEMB     169      SAPS     H20T     HAL3     0.900000E-01   1.00800           0
     19542 MEMB     169      SAPS     C33      CTL2    -0.180000       12.0110           0
     19543 MEMB     169      SAPS     H3X      HAL2     0.900000E-01   1.00800           0
     19544 MEMB     169      SAPS     H3Y      HAL2     0.900000E-01   1.00800           0
     19545 MEMB     169      SAPS     C34      CTL2    -0.180000       12.0110           0
     19546 MEMB     169      SAPS     H4X      HAL2     0.900000E-01   1.00800           0
     19547 MEMB     169      SAPS     H4Y      HAL2     0.900000E-01   1.00800           0
     19548 MEMB     169      SAPS     C35      CTL2    -0.180000       12.0110           0
     19549 MEMB     169      SAPS     H5X      HAL2     0.900000E-01   1.00800           0
     19550 MEMB     169      SAPS     H5Y      HAL2     0.900000E-01   1.00800           0
     19551 MEMB     169      SAPS     C36      CTL2    -0.180000       12.0110           0
     19552 MEMB     169      SAPS     H6X      HAL2     0.900000E-01   1.00800           0
     19553 MEMB     169      SAPS     H6Y      HAL2     0.900000E-01   1.00800           0
     19554 MEMB     169      SAPS     C37      CTL2    -0.180000       12.0110           0
     19555 MEMB     169      SAPS     H7X      HAL2     0.900000E-01   1.00800           0
     19556 MEMB     169      SAPS     H7Y      HAL2     0.900000E-01   1.00800           0
     19557 MEMB     169      SAPS     C38      CTL2    -0.180000       12.0110           0
     19558 MEMB     169      SAPS     H8X      HAL2     0.900000E-01   1.00800           0
     19559 MEMB     169      SAPS     H8Y      HAL2     0.900000E-01   1.00800           0
     19560 MEMB     169      SAPS     C39      CTL2    -0.180000       12.0110           0
     19561 MEMB     169      SAPS     H9X      HAL2     0.900000E-01   1.00800           0
     19562 MEMB     169      SAPS     H9Y      HAL2     0.900000E-01   1.00800           0
     19563 MEMB     169      SAPS     C310     CTL2    -0.180000       12.0110           0
     19564 MEMB     169      SAPS     H10X     HAL2     0.900000E-01   1.00800           0
     19565 MEMB     169      SAPS     H10Y     HAL2     0.900000E-01   1.00800           0
     19566 MEMB     169      SAPS     C311     CTL2    -0.180000       12.0110           0
     19567 MEMB     169      SAPS     H11X     HAL2     0.900000E-01   1.00800           0
     19568 MEMB     169      SAPS     H11Y     HAL2     0.900000E-01   1.00800           0
     19569 MEMB     169      SAPS     C312     CTL2    -0.180000       12.0110           0
     19570 MEMB     169      SAPS     H12X     HAL2     0.900000E-01   1.00800           0
     19571 MEMB     169      SAPS     H12Y     HAL2     0.900000E-01   1.00800           0
     19572 MEMB     169      SAPS     C313     CTL2    -0.180000       12.0110           0
     19573 MEMB     169      SAPS     H13X     HAL2     0.900000E-01   1.00800           0
     19574 MEMB     169      SAPS     H13Y     HAL2     0.900000E-01   1.00800           0
     19575 MEMB     169      SAPS     C314     CTL2    -0.180000       12.0110           0
     19576 MEMB     169      SAPS     H14X     HAL2     0.900000E-01   1.00800           0
     19577 MEMB     169      SAPS     H14Y     HAL2     0.900000E-01   1.00800           0
     19578 MEMB     169      SAPS     C315     CTL2    -0.180000       12.0110           0
     19579 MEMB     169      SAPS     H15X     HAL2     0.900000E-01   1.00800           0
     19580 MEMB     169      SAPS     H15Y     HAL2     0.900000E-01   1.00800           0
     19581 MEMB     169      SAPS     C316     CTL2    -0.180000       12.0110           0
     19582 MEMB     169      SAPS     H16X     HAL2     0.900000E-01   1.00800           0
     19583 MEMB     169      SAPS     H16Y     HAL2     0.900000E-01   1.00800           0
     19584 MEMB     169      SAPS     C317     CTL2    -0.180000       12.0110           0
     19585 MEMB     169      SAPS     H17X     HAL2     0.900000E-01   1.00800           0
     19586 MEMB     169      SAPS     H17Y     HAL2     0.900000E-01   1.00800           0
     19587 MEMB     169      SAPS     C318     CTL3    -0.270000       12.0110           0
     19588 MEMB     169      SAPS     H18X     HAL3     0.900000E-01   1.00800           0
     19589 MEMB     169      SAPS     H18Y     HAL3     0.900000E-01   1.00800           0
     19590 MEMB     169      SAPS     H18Z     HAL3     0.900000E-01   1.00800           0
     19591 MEMB     170      OSM      N        NTL     -0.600000       14.0070           0
     19592 MEMB     170      OSM      C15      CTL5    -0.350000       12.0110           0
     19593 MEMB     170      OSM      H15A     HL       0.250000       1.00800           0
     19594 MEMB     170      OSM      H15B     HL       0.250000       1.00800           0
     19595 MEMB     170      OSM      H15C     HL       0.250000       1.00800           0
     19596 MEMB     170      OSM      C14      CTL5    -0.350000       12.0110           0
     19597 MEMB     170      OSM      H14A     HL       0.250000       1.00800           0
     19598 MEMB     170      OSM      H14B     HL       0.250000       1.00800           0
     19599 MEMB     170      OSM      H14C     HL       0.250000       1.00800           0
     19600 MEMB     170      OSM      C13      CTL5    -0.350000       12.0110           0
     19601 MEMB     170      OSM      H13A     HL       0.250000       1.00800           0
     19602 MEMB     170      OSM      H13B     HL       0.250000       1.00800           0
     19603 MEMB     170      OSM      H13C     HL       0.250000       1.00800           0
     19604 MEMB     170      OSM      C12      CTL2    -0.100000       12.0110           0
     19605 MEMB     170      OSM      H12A     HL       0.250000       1.00800           0
     19606 MEMB     170      OSM      H12B     HL       0.250000       1.00800           0
     19607 MEMB     170      OSM      C11      CTL2    -0.800000E-01   12.0110           0
     19608 MEMB     170      OSM      H11A     HAL2     0.900000E-01   1.00800           0
     19609 MEMB     170      OSM      H11B     HAL2     0.900000E-01   1.00800           0
     19610 MEMB     170      OSM      P        PL        1.50000       30.9740           0
     19611 MEMB     170      OSM      O13      O2L     -0.780000       15.9994           0
     19612 MEMB     170      OSM      O14      O2L     -0.780000       15.9994           0
     19613 MEMB     170      OSM      O11      OSLP    -0.570000       15.9994           0
     19614 MEMB     170      OSM      O12      OSLP    -0.570000       15.9994           0
     19615 MEMB     170      OSM      C1S      CTL2    -0.800000E-01   12.0110           0
     19616 MEMB     170      OSM      H1S      HAL2     0.900000E-01   1.00800           0
     19617 MEMB     170      OSM      H1T      HAL2     0.900000E-01   1.00800           0
     19618 MEMB     170      OSM      NF       NHL     -0.700000       14.0070           0
     19619 MEMB     170      OSM      HNF      H        0.350000       1.00800           0
     19620 MEMB     170      OSM      C2S      CTL1     0.300000       12.0110           0
     19621 MEMB     170      OSM      H2S      HAL1     0.500000E-01   1.00800           0
     19622 MEMB     170      OSM      C3S      CTO1     0.500000       12.0110           0
     19623 MEMB     170      OSM      H3S      HAL1    -0.110000       1.00800           0
     19624 MEMB     170      OSM      O3       OHL     -0.690000       15.9994           0
     19625 MEMB     170      OSM      HO3      HOL      0.300000       1.00800           0
     19626 MEMB     170      OSM      C4S      CEL3    -0.150000       12.0110           0
     19627 MEMB     170      OSM      H4S      HEL1     0.150000       1.00800           0
     19628 MEMB     170      OSM      C5S      CEL3    -0.150000       12.0110           0
     19629 MEMB     170      OSM      H5S      HEL1     0.150000       1.00800           0
     19630 MEMB     170      OSM      C6S      CTL2    -0.180000       12.0110           0
     19631 MEMB     170      OSM      H6S      HAL2     0.900000E-01   1.00800           0
     19632 MEMB     170      OSM      H6T      HAL2     0.900000E-01   1.00800           0
     19633 MEMB     170      OSM      C7S      CTL2    -0.180000       12.0110           0
     19634 MEMB     170      OSM      H7S      HAL2     0.900000E-01   1.00800           0
     19635 MEMB     170      OSM      H7T      HAL2     0.900000E-01   1.00800           0
     19636 MEMB     170      OSM      C8S      CTL2    -0.180000       12.0110           0
     19637 MEMB     170      OSM      H8S      HAL2     0.900000E-01   1.00800           0
     19638 MEMB     170      OSM      H8T      HAL2     0.900000E-01   1.00800           0
     19639 MEMB     170      OSM      C9S      CTL2    -0.180000       12.0110           0
     19640 MEMB     170      OSM      H9S      HAL2     0.900000E-01   1.00800           0
     19641 MEMB     170      OSM      H9T      HAL2     0.900000E-01   1.00800           0
     19642 MEMB     170      OSM      C10S     CTL2    -0.180000       12.0110           0
     19643 MEMB     170      OSM      H10S     HAL2     0.900000E-01   1.00800           0
     19644 MEMB     170      OSM      H10T     HAL2     0.900000E-01   1.00800           0
     19645 MEMB     170      OSM      C11S     CTL2    -0.180000       12.0110           0
     19646 MEMB     170      OSM      H11S     HAL2     0.900000E-01   1.00800           0
     19647 MEMB     170      OSM      H11T     HAL2     0.900000E-01   1.00800           0
     19648 MEMB     170      OSM      C12S     CTL2    -0.180000       12.0110           0
     19649 MEMB     170      OSM      H12S     HAL2     0.900000E-01   1.00800           0
     19650 MEMB     170      OSM      H12T     HAL2     0.900000E-01   1.00800           0
     19651 MEMB     170      OSM      C13S     CTL2    -0.180000       12.0110           0
     19652 MEMB     170      OSM      H13S     HAL2     0.900000E-01   1.00800           0
     19653 MEMB     170      OSM      H13T     HAL2     0.900000E-01   1.00800           0
     19654 MEMB     170      OSM      C14S     CTL2    -0.180000       12.0110           0
     19655 MEMB     170      OSM      H14S     HAL2     0.900000E-01   1.00800           0
     19656 MEMB     170      OSM      H14T     HAL2     0.900000E-01   1.00800           0
     19657 MEMB     170      OSM      C15S     CTL2    -0.180000       12.0110           0
     19658 MEMB     170      OSM      H15S     HAL2     0.900000E-01   1.00800           0
     19659 MEMB     170      OSM      H15T     HAL2     0.900000E-01   1.00800           0
     19660 MEMB     170      OSM      C16S     CTL2    -0.180000       12.0110           0
     19661 MEMB     170      OSM      H16S     HAL2     0.900000E-01   1.00800           0
     19662 MEMB     170      OSM      H16T     HAL2     0.900000E-01   1.00800           0
     19663 MEMB     170      OSM      C17S     CTL2    -0.180000       12.0110           0
     19664 MEMB     170      OSM      H17S     HAL2     0.900000E-01   1.00800           0
     19665 MEMB     170      OSM      H17T     HAL2     0.900000E-01   1.00800           0
     19666 MEMB     170      OSM      C18S     CTL3    -0.270000       12.0110           0
     19667 MEMB     170      OSM      H18S     HAL3     0.900000E-01   1.00800           0
     19668 MEMB     170      OSM      H18T     HAL3     0.900000E-01   1.00800           0
     19669 MEMB     170      OSM      H18U     HAL3     0.900000E-01   1.00800           0
     19670 MEMB     170      OSM      C1F      C        0.550000       12.0110           0
     19671 MEMB     170      OSM      OF       O       -0.600000       15.9994           0
     19672 MEMB     170      OSM      C2F      CTL2    -0.700000E-01   12.0110           0
     19673 MEMB     170      OSM      H2F      HAL2     0.600000E-01   1.00800           0
     19674 MEMB     170      OSM      H2G      HAL2     0.600000E-01   1.00800           0
     19675 MEMB     170      OSM      C3F      CTL2    -0.180000       12.0110           0
     19676 MEMB     170      OSM      H3F      HAL2     0.900000E-01   1.00800           0
     19677 MEMB     170      OSM      H3G      HAL2     0.900000E-01   1.00800           0
     19678 MEMB     170      OSM      C4F      CTL2    -0.180000       12.0110           0
     19679 MEMB     170      OSM      H4F      HAL2     0.900000E-01   1.00800           0
     19680 MEMB     170      OSM      H4G      HAL2     0.900000E-01   1.00800           0
     19681 MEMB     170      OSM      C5F      CTL2    -0.180000       12.0110           0
     19682 MEMB     170      OSM      H5F      HAL2     0.900000E-01   1.00800           0
     19683 MEMB     170      OSM      H5G      HAL2     0.900000E-01   1.00800           0
     19684 MEMB     170      OSM      C6F      CTL2    -0.180000       12.0110           0
     19685 MEMB     170      OSM      H6F      HAL2     0.900000E-01   1.00800           0
     19686 MEMB     170      OSM      H6G      HAL2     0.900000E-01   1.00800           0
     19687 MEMB     170      OSM      C7F      CTL2    -0.180000       12.0110           0
     19688 MEMB     170      OSM      H7F      HAL2     0.900000E-01   1.00800           0
     19689 MEMB     170      OSM      H7G      HAL2     0.900000E-01   1.00800           0
     19690 MEMB     170      OSM      C8F      CTL2    -0.180000       12.0110           0
     19691 MEMB     170      OSM      H8F      HAL2     0.900000E-01   1.00800           0
     19692 MEMB     170      OSM      H8G      HAL2     0.900000E-01   1.00800           0
     19693 MEMB     170      OSM      C9F      CEL1    -0.150000       12.0110           0
     19694 MEMB     170      OSM      H9F      HEL1     0.150000       1.00800           0
     19695 MEMB     170      OSM      C10F     CEL1    -0.150000       12.0110           0
     19696 MEMB     170      OSM      H10F     HEL1     0.150000       1.00800           0
     19697 MEMB     170      OSM      C11F     CTL2    -0.180000       12.0110           0
     19698 MEMB     170      OSM      H11F     HAL2     0.900000E-01   1.00800           0
     19699 MEMB     170      OSM      H11G     HAL2     0.900000E-01   1.00800           0
     19700 MEMB     170      OSM      C12F     CTL2    -0.180000       12.0110           0
     19701 MEMB     170      OSM      H12F     HAL2     0.900000E-01   1.00800           0
     19702 MEMB     170      OSM      H12G     HAL2     0.900000E-01   1.00800           0
     19703 MEMB     170      OSM      C13F     CTL2    -0.180000       12.0110           0
     19704 MEMB     170      OSM      H13F     HAL2     0.900000E-01   1.00800           0
     19705 MEMB     170      OSM      H13G     HAL2     0.900000E-01   1.00800           0
     19706 MEMB     170      OSM      C14F     CTL2    -0.180000       12.0110           0
     19707 MEMB     170      OSM      H14F     HAL2     0.900000E-01   1.00800           0
     19708 MEMB     170      OSM      H14G     HAL2     0.900000E-01   1.00800           0
     19709 MEMB     170      OSM      C15F     CTL2    -0.180000       12.0110           0
     19710 MEMB     170      OSM      H15F     HAL2     0.900000E-01   1.00800           0
     19711 MEMB     170      OSM      H15G     HAL2     0.900000E-01   1.00800           0
     19712 MEMB     170      OSM      C16F     CTL2    -0.180000       12.0110           0
     19713 MEMB     170      OSM      H16F     HAL2     0.900000E-01   1.00800           0
     19714 MEMB     170      OSM      H16G     HAL2     0.900000E-01   1.00800           0
     19715 MEMB     170      OSM      C17F     CTL2    -0.180000       12.0110           0
     19716 MEMB     170      OSM      H17F     HAL2     0.900000E-01   1.00800           0
     19717 MEMB     170      OSM      H17G     HAL2     0.900000E-01   1.00800           0
     19718 MEMB     170      OSM      C18F     CTL3    -0.270000       12.0110           0
     19719 MEMB     170      OSM      H18F     HAL3     0.900000E-01   1.00800           0
     19720 MEMB     170      OSM      H18G     HAL3     0.900000E-01   1.00800           0
     19721 MEMB     170      OSM      H18H     HAL3     0.900000E-01   1.00800           0
     19722 MEMB     171      CHL1     C3       CRL1     0.140000       12.0110           0
     19723 MEMB     171      CHL1     H3       HGA1     0.900000E-01   1.00800           0
     19724 MEMB     171      CHL1     O3       OHL     -0.660000       15.9994           0
     19725 MEMB     171      CHL1     H3'      HOL      0.430000       1.00800           0
     19726 MEMB     171      CHL1     C4       CRL2    -0.180000       12.0110           0
     19727 MEMB     171      CHL1     H4A      HGA2     0.900000E-01   1.00800           0
     19728 MEMB     171      CHL1     H4B      HGA2     0.900000E-01   1.00800           0
     19729 MEMB     171      CHL1     C5       CEL1      0.00000       12.0110           0
     19730 MEMB     171      CHL1     C6       CEL1    -0.150000       12.0110           0
     19731 MEMB     171      CHL1     H6       HEL1     0.150000       1.00800           0
     19732 MEMB     171      CHL1     C7       CRL2    -0.180000       12.0110           0
     19733 MEMB     171      CHL1     H7A      HGA2     0.900000E-01   1.00800           0
     19734 MEMB     171      CHL1     H7B      HGA2     0.900000E-01   1.00800           0
     19735 MEMB     171      CHL1     C8       CRL1    -0.900000E-01   12.0110           0
     19736 MEMB     171      CHL1     H8       HGA1     0.900000E-01   1.00800           0
     19737 MEMB     171      CHL1     C14      CRL1    -0.900000E-01   12.0110           0
     19738 MEMB     171      CHL1     H14      HGA1     0.900000E-01   1.00800           0
     19739 MEMB     171      CHL1     C15      CRL2    -0.180000       12.0110           0
     19740 MEMB     171      CHL1     H15A     HGA2     0.900000E-01   1.00800           0
     19741 MEMB     171      CHL1     H15B     HGA2     0.900000E-01   1.00800           0
     19742 MEMB     171      CHL1     C16      CRL2    -0.180000       12.0110           0
     19743 MEMB     171      CHL1     H16A     HGA2     0.900000E-01   1.00800           0
     19744 MEMB     171      CHL1     H16B     HGA2     0.900000E-01   1.00800           0
     19745 MEMB     171      CHL1     C17      CRL1    -0.900000E-01   12.0110           0
     19746 MEMB     171      CHL1     H17      HGA1     0.900000E-01   1.00800           0
     19747 MEMB     171      CHL1     C13      CRL1      0.00000       12.0110           0
     19748 MEMB     171      CHL1     C18      CTL3    -0.270000       12.0110           0
     19749 MEMB     171      CHL1     H18A     HAL3     0.900000E-01   1.00800           0
     19750 MEMB     171      CHL1     H18B     HAL3     0.900000E-01   1.00800           0
     19751 MEMB     171      CHL1     H18C     HAL3     0.900000E-01   1.00800           0
     19752 MEMB     171      CHL1     C12      CRL2    -0.180000       12.0110           0
     19753 MEMB     171      CHL1     H12A     HGA2     0.900000E-01   1.00800           0
     19754 MEMB     171      CHL1     H12B     HGA2     0.900000E-01   1.00800           0
     19755 MEMB     171      CHL1     C11      CRL2    -0.180000       12.0110           0
     19756 MEMB     171      CHL1     H11A     HGA2     0.900000E-01   1.00800           0
     19757 MEMB     171      CHL1     H11B     HGA2     0.900000E-01   1.00800           0
     19758 MEMB     171      CHL1     C9       CRL1    -0.900000E-01   12.0110           0
     19759 MEMB     171      CHL1     H9       HGA1     0.900000E-01   1.00800           0
     19760 MEMB     171      CHL1     C10      CRL1      0.00000       12.0110           0
     19761 MEMB     171      CHL1     C19      CTL3    -0.270000       12.0110           0
     19762 MEMB     171      CHL1     H19A     HAL3     0.900000E-01   1.00800           0
     19763 MEMB     171      CHL1     H19B     HAL3     0.900000E-01   1.00800           0
     19764 MEMB     171      CHL1     H19C     HAL3     0.900000E-01   1.00800           0
     19765 MEMB     171      CHL1     C1       CRL2    -0.180000       12.0110           0
     19766 MEMB     171      CHL1     H1A      HGA2     0.900000E-01   1.00800           0
     19767 MEMB     171      CHL1     H1B      HGA2     0.900000E-01   1.00800           0
     19768 MEMB     171      CHL1     C2       CRL2    -0.180000       12.0110           0
     19769 MEMB     171      CHL1     H2A      HGA2     0.900000E-01   1.00800           0
     19770 MEMB     171      CHL1     H2B      HGA2     0.900000E-01   1.00800           0
     19771 MEMB     171      CHL1     C20      CTL1    -0.900000E-01   12.0110           0
     19772 MEMB     171      CHL1     H20      HAL1     0.900000E-01   1.00800           0
     19773 MEMB     171      CHL1     C21      CTL3    -0.270000       12.0110           0
     19774 MEMB     171      CHL1     H21A     HAL3     0.900000E-01   1.00800           0
     19775 MEMB     171      CHL1     H21B     HAL3     0.900000E-01   1.00800           0
     19776 MEMB     171      CHL1     H21C     HAL3     0.900000E-01   1.00800           0
     19777 MEMB     171      CHL1     C22      CTL2    -0.180000       12.0110           0
     19778 MEMB     171      CHL1     H22A     HAL2     0.900000E-01   1.00800           0
     19779 MEMB     171      CHL1     H22B     HAL2     0.900000E-01   1.00800           0
     19780 MEMB     171      CHL1     C23      CTL2    -0.180000       12.0110           0
     19781 MEMB     171      CHL1     H23A     HAL2     0.900000E-01   1.00800           0
     19782 MEMB     171      CHL1     H23B     HAL2     0.900000E-01   1.00800           0
     19783 MEMB     171      CHL1     C24      CTL2    -0.180000       12.0110           0
     19784 MEMB     171      CHL1     H24A     HAL2     0.900000E-01   1.00800           0
     19785 MEMB     171      CHL1     H24B     HAL2     0.900000E-01   1.00800           0
     19786 MEMB     171      CHL1     C25      CTL1    -0.900000E-01   12.0110           0
     19787 MEMB     171      CHL1     H25      HAL1     0.900000E-01   1.00800           0
     19788 MEMB     171      CHL1     C26      CTL3    -0.270000       12.0110           0
     19789 MEMB     171      CHL1     H26A     HAL3     0.900000E-01   1.00800           0
     19790 MEMB     171      CHL1     H26B     HAL3     0.900000E-01   1.00800           0
     19791 MEMB     171      CHL1     H26C     HAL3     0.900000E-01   1.00800           0
     19792 MEMB     171      CHL1     C27      CTL3    -0.270000       12.0110           0
     19793 MEMB     171      CHL1     H27A     HAL3     0.900000E-01   1.00800           0
     19794 MEMB     171      CHL1     H27B     HAL3     0.900000E-01   1.00800           0
     19795 MEMB     171      CHL1     H27C     HAL3     0.900000E-01   1.00800           0
     19796 MEMB     172      CHL1     C3       CRL1     0.140000       12.0110           0
     19797 MEMB     172      CHL1     H3       HGA1     0.900000E-01   1.00800           0
     19798 MEMB     172      CHL1     O3       OHL     -0.660000       15.9994           0
     19799 MEMB     172      CHL1     H3'      HOL      0.430000       1.00800           0
     19800 MEMB     172      CHL1     C4       CRL2    -0.180000       12.0110           0
     19801 MEMB     172      CHL1     H4A      HGA2     0.900000E-01   1.00800           0
     19802 MEMB     172      CHL1     H4B      HGA2     0.900000E-01   1.00800           0
     19803 MEMB     172      CHL1     C5       CEL1      0.00000       12.0110           0
     19804 MEMB     172      CHL1     C6       CEL1    -0.150000       12.0110           0
     19805 MEMB     172      CHL1     H6       HEL1     0.150000       1.00800           0
     19806 MEMB     172      CHL1     C7       CRL2    -0.180000       12.0110           0
     19807 MEMB     172      CHL1     H7A      HGA2     0.900000E-01   1.00800           0
     19808 MEMB     172      CHL1     H7B      HGA2     0.900000E-01   1.00800           0
     19809 MEMB     172      CHL1     C8       CRL1    -0.900000E-01   12.0110           0
     19810 MEMB     172      CHL1     H8       HGA1     0.900000E-01   1.00800           0
     19811 MEMB     172      CHL1     C14      CRL1    -0.900000E-01   12.0110           0
     19812 MEMB     172      CHL1     H14      HGA1     0.900000E-01   1.00800           0
     19813 MEMB     172      CHL1     C15      CRL2    -0.180000       12.0110           0
     19814 MEMB     172      CHL1     H15A     HGA2     0.900000E-01   1.00800           0
     19815 MEMB     172      CHL1     H15B     HGA2     0.900000E-01   1.00800           0
     19816 MEMB     172      CHL1     C16      CRL2    -0.180000       12.0110           0
     19817 MEMB     172      CHL1     H16A     HGA2     0.900000E-01   1.00800           0
     19818 MEMB     172      CHL1     H16B     HGA2     0.900000E-01   1.00800           0
     19819 MEMB     172      CHL1     C17      CRL1    -0.900000E-01   12.0110           0
     19820 MEMB     172      CHL1     H17      HGA1     0.900000E-01   1.00800           0
     19821 MEMB     172      CHL1     C13      CRL1      0.00000       12.0110           0
     19822 MEMB     172      CHL1     C18      CTL3    -0.270000       12.0110           0
     19823 MEMB     172      CHL1     H18A     HAL3     0.900000E-01   1.00800           0
     19824 MEMB     172      CHL1     H18B     HAL3     0.900000E-01   1.00800           0
     19825 MEMB     172      CHL1     H18C     HAL3     0.900000E-01   1.00800           0
     19826 MEMB     172      CHL1     C12      CRL2    -0.180000       12.0110           0
     19827 MEMB     172      CHL1     H12A     HGA2     0.900000E-01   1.00800           0
     19828 MEMB     172      CHL1     H12B     HGA2     0.900000E-01   1.00800           0
     19829 MEMB     172      CHL1     C11      CRL2    -0.180000       12.0110           0
     19830 MEMB     172      CHL1     H11A     HGA2     0.900000E-01   1.00800           0
     19831 MEMB     172      CHL1     H11B     HGA2     0.900000E-01   1.00800           0
     19832 MEMB     172      CHL1     C9       CRL1    -0.900000E-01   12.0110           0
     19833 MEMB     172      CHL1     H9       HGA1     0.900000E-01   1.00800           0
     19834 MEMB     172      CHL1     C10      CRL1      0.00000       12.0110           0
     19835 MEMB     172      CHL1     C19      CTL3    -0.270000       12.0110           0
     19836 MEMB     172      CHL1     H19A     HAL3     0.900000E-01   1.00800           0
     19837 MEMB     172      CHL1     H19B     HAL3     0.900000E-01   1.00800           0
     19838 MEMB     172      CHL1     H19C     HAL3     0.900000E-01   1.00800           0
     19839 MEMB     172      CHL1     C1       CRL2    -0.180000       12.0110           0
     19840 MEMB     172      CHL1     H1A      HGA2     0.900000E-01   1.00800           0
     19841 MEMB     172      CHL1     H1B      HGA2     0.900000E-01   1.00800           0
     19842 MEMB     172      CHL1     C2       CRL2    -0.180000       12.0110           0
     19843 MEMB     172      CHL1     H2A      HGA2     0.900000E-01   1.00800           0
     19844 MEMB     172      CHL1     H2B      HGA2     0.900000E-01   1.00800           0
     19845 MEMB     172      CHL1     C20      CTL1    -0.900000E-01   12.0110           0
     19846 MEMB     172      CHL1     H20      HAL1     0.900000E-01   1.00800           0
     19847 MEMB     172      CHL1     C21      CTL3    -0.270000       12.0110           0
     19848 MEMB     172      CHL1     H21A     HAL3     0.900000E-01   1.00800           0
     19849 MEMB     172      CHL1     H21B     HAL3     0.900000E-01   1.00800           0
     19850 MEMB     172      CHL1     H21C     HAL3     0.900000E-01   1.00800           0
     19851 MEMB     172      CHL1     C22      CTL2    -0.180000       12.0110           0
     19852 MEMB     172      CHL1     H22A     HAL2     0.900000E-01   1.00800           0
     19853 MEMB     172      CHL1     H22B     HAL2     0.900000E-01   1.00800           0
     19854 MEMB     172      CHL1     C23      CTL2    -0.180000       12.0110           0
     19855 MEMB     172      CHL1     H23A     HAL2     0.900000E-01   1.00800           0
     19856 MEMB     172      CHL1     H23B     HAL2     0.900000E-01   1.00800           0
     19857 MEMB     172      CHL1     C24      CTL2    -0.180000       12.0110           0
     19858 MEMB     172      CHL1     H24A     HAL2     0.900000E-01   1.00800           0
     19859 MEMB     172      CHL1     H24B     HAL2     0.900000E-01   1.00800           0
     19860 MEMB     172      CHL1     C25      CTL1    -0.900000E-01   12.0110           0
     19861 MEMB     172      CHL1     H25      HAL1     0.900000E-01   1.00800           0
     19862 MEMB     172      CHL1     C26      CTL3    -0.270000       12.0110           0
     19863 MEMB     172      CHL1     H26A     HAL3     0.900000E-01   1.00800           0
     19864 MEMB     172      CHL1     H26B     HAL3     0.900000E-01   1.00800           0
     19865 MEMB     172      CHL1     H26C     HAL3     0.900000E-01   1.00800           0
     19866 MEMB     172      CHL1     C27      CTL3    -0.270000       12.0110           0
     19867 MEMB     172      CHL1     H27A     HAL3     0.900000E-01   1.00800           0
     19868 MEMB     172      CHL1     H27B     HAL3     0.900000E-01   1.00800           0
     19869 MEMB     172      CHL1     H27C     HAL3     0.900000E-01   1.00800           0
     19870 MEMB     173      SAPC     N        NTL     -0.600000       14.0070           0
     19871 MEMB     173      SAPC     C12      CTL2    -0.100000       12.0110           0
     19872 MEMB     173      SAPC     H12A     HL       0.250000       1.00800           0
     19873 MEMB     173      SAPC     H12B     HL       0.250000       1.00800           0
     19874 MEMB     173      SAPC     C13      CTL5    -0.350000       12.0110           0
     19875 MEMB     173      SAPC     H13A     HL       0.250000       1.00800           0
     19876 MEMB     173      SAPC     H13B     HL       0.250000       1.00800           0
     19877 MEMB     173      SAPC     H13C     HL       0.250000       1.00800           0
     19878 MEMB     173      SAPC     C14      CTL5    -0.350000       12.0110           0
     19879 MEMB     173      SAPC     H14A     HL       0.250000       1.00800           0
     19880 MEMB     173      SAPC     H14B     HL       0.250000       1.00800           0
     19881 MEMB     173      SAPC     H14C     HL       0.250000       1.00800           0
     19882 MEMB     173      SAPC     C15      CTL5    -0.350000       12.0110           0
     19883 MEMB     173      SAPC     H15A     HL       0.250000       1.00800           0
     19884 MEMB     173      SAPC     H15B     HL       0.250000       1.00800           0
     19885 MEMB     173      SAPC     H15C     HL       0.250000       1.00800           0
     19886 MEMB     173      SAPC     C11      CTL2    -0.800000E-01   12.0110           0
     19887 MEMB     173      SAPC     H11A     HAL2     0.900000E-01   1.00800           0
     19888 MEMB     173      SAPC     H11B     HAL2     0.900000E-01   1.00800           0
     19889 MEMB     173      SAPC     P        PL        1.50000       30.9740           0
     19890 MEMB     173      SAPC     O13      O2L     -0.780000       15.9994           0
     19891 MEMB     173      SAPC     O14      O2L     -0.780000       15.9994           0
     19892 MEMB     173      SAPC     O12      OSLP    -0.570000       15.9994           0
     19893 MEMB     173      SAPC     O11      OSLP    -0.570000       15.9994           0
     19894 MEMB     173      SAPC     C1       CTL2    -0.800000E-01   12.0110           0
     19895 MEMB     173      SAPC     HA       HAL2     0.900000E-01   1.00800           0
     19896 MEMB     173      SAPC     HB       HAL2     0.900000E-01   1.00800           0
     19897 MEMB     173      SAPC     C2       CTL1     0.170000       12.0110           0
     19898 MEMB     173      SAPC     HS       HAL1     0.900000E-01   1.00800           0
     19899 MEMB     173      SAPC     O21      OSL     -0.490000       15.9994           0
     19900 MEMB     173      SAPC     C21      CL       0.900000       12.0110           0
     19901 MEMB     173      SAPC     O22      OBL     -0.630000       15.9994           0
     19902 MEMB     173      SAPC     C22      CTL2    -0.220000       12.0110           0
     19903 MEMB     173      SAPC     H2R      HAL2     0.900000E-01   1.00800           0
     19904 MEMB     173      SAPC     H2S      HAL2     0.900000E-01   1.00800           0
     19905 MEMB     173      SAPC     C3       CTL2     0.800000E-01   12.0110           0
     19906 MEMB     173      SAPC     HX       HAL2     0.900000E-01   1.00800           0
     19907 MEMB     173      SAPC     HY       HAL2     0.900000E-01   1.00800           0
     19908 MEMB     173      SAPC     O31      OSL     -0.490000       15.9994           0
     19909 MEMB     173      SAPC     C31      CL       0.900000       12.0110           0
     19910 MEMB     173      SAPC     O32      OBL     -0.630000       15.9994           0
     19911 MEMB     173      SAPC     C32      CTL2    -0.220000       12.0110           0
     19912 MEMB     173      SAPC     H2X      HAL2     0.900000E-01   1.00800           0
     19913 MEMB     173      SAPC     H2Y      HAL2     0.900000E-01   1.00800           0
     19914 MEMB     173      SAPC     C23      CTL2    -0.180000       12.0110           0
     19915 MEMB     173      SAPC     H3R      HAL2     0.900000E-01   1.00800           0
     19916 MEMB     173      SAPC     H3S      HAL2     0.900000E-01   1.00800           0
     19917 MEMB     173      SAPC     C24      CTL2    -0.180000       12.0110           0
     19918 MEMB     173      SAPC     H4R      HAL2     0.900000E-01   1.00800           0
     19919 MEMB     173      SAPC     H4S      HAL2     0.900000E-01   1.00800           0
     19920 MEMB     173      SAPC     C25      CEL1    -0.150000       12.0110           0
     19921 MEMB     173      SAPC     H5R      HEL1     0.150000       1.00800           0
     19922 MEMB     173      SAPC     C26      CEL1    -0.150000       12.0110           0
     19923 MEMB     173      SAPC     H6R      HEL1     0.150000       1.00800           0
     19924 MEMB     173      SAPC     C27      CTL2    -0.180000       12.0110           0
     19925 MEMB     173      SAPC     H7R      HAL2     0.900000E-01   1.00800           0
     19926 MEMB     173      SAPC     H7S      HAL2     0.900000E-01   1.00800           0
     19927 MEMB     173      SAPC     C28      CEL1    -0.150000       12.0110           0
     19928 MEMB     173      SAPC     H8R      HEL1     0.150000       1.00800           0
     19929 MEMB     173      SAPC     C29      CEL1    -0.150000       12.0110           0
     19930 MEMB     173      SAPC     H9R      HEL1     0.150000       1.00800           0
     19931 MEMB     173      SAPC     C210     CTL2    -0.180000       12.0110           0
     19932 MEMB     173      SAPC     H10R     HAL2     0.900000E-01   1.00800           0
     19933 MEMB     173      SAPC     H10S     HAL2     0.900000E-01   1.00800           0
     19934 MEMB     173      SAPC     C211     CEL1    -0.150000       12.0110           0
     19935 MEMB     173      SAPC     H11R     HEL1     0.150000       1.00800           0
     19936 MEMB     173      SAPC     C212     CEL1    -0.150000       12.0110           0
     19937 MEMB     173      SAPC     H12R     HEL1     0.150000       1.00800           0
     19938 MEMB     173      SAPC     C213     CTL2    -0.180000       12.0110           0
     19939 MEMB     173      SAPC     H13R     HAL2     0.900000E-01   1.00800           0
     19940 MEMB     173      SAPC     H13S     HAL2     0.900000E-01   1.00800           0
     19941 MEMB     173      SAPC     C214     CEL1    -0.150000       12.0110           0
     19942 MEMB     173      SAPC     H14R     HEL1     0.150000       1.00800           0
     19943 MEMB     173      SAPC     C215     CEL1    -0.150000       12.0110           0
     19944 MEMB     173      SAPC     H15R     HEL1     0.150000       1.00800           0
     19945 MEMB     173      SAPC     C216     CTL2    -0.180000       12.0110           0
     19946 MEMB     173      SAPC     H16R     HAL2     0.900000E-01   1.00800           0
     19947 MEMB     173      SAPC     H16S     HAL2     0.900000E-01   1.00800           0
     19948 MEMB     173      SAPC     C217     CTL2    -0.180000       12.0110           0
     19949 MEMB     173      SAPC     H17R     HAL2     0.900000E-01   1.00800           0
     19950 MEMB     173      SAPC     H17S     HAL2     0.900000E-01   1.00800           0
     19951 MEMB     173      SAPC     C218     CTL2    -0.270000       12.0110           0
     19952 MEMB     173      SAPC     H18R     HAL2     0.900000E-01   1.00800           0
     19953 MEMB     173      SAPC     H18S     HAL2     0.900000E-01   1.00800           0
     19954 MEMB     173      SAPC     C219     CTL2    -0.180000       12.0110           0
     19955 MEMB     173      SAPC     H19R     HAL2     0.900000E-01   1.00800           0
     19956 MEMB     173      SAPC     H19S     HAL2     0.900000E-01   1.00800           0
     19957 MEMB     173      SAPC     C220     CTL3    -0.180000       12.0110           0
     19958 MEMB     173      SAPC     H20R     HAL3     0.900000E-01   1.00800           0
     19959 MEMB     173      SAPC     H20S     HAL3     0.900000E-01   1.00800           0
     19960 MEMB     173      SAPC     H20T     HAL3     0.900000E-01   1.00800           0
     19961 MEMB     173      SAPC     C33      CTL2    -0.180000       12.0110           0
     19962 MEMB     173      SAPC     H3X      HAL2     0.900000E-01   1.00800           0
     19963 MEMB     173      SAPC     H3Y      HAL2     0.900000E-01   1.00800           0
     19964 MEMB     173      SAPC     C34      CTL2    -0.180000       12.0110           0
     19965 MEMB     173      SAPC     H4X      HAL2     0.900000E-01   1.00800           0
     19966 MEMB     173      SAPC     H4Y      HAL2     0.900000E-01   1.00800           0
     19967 MEMB     173      SAPC     C35      CTL2    -0.180000       12.0110           0
     19968 MEMB     173      SAPC     H5X      HAL2     0.900000E-01   1.00800           0
     19969 MEMB     173      SAPC     H5Y      HAL2     0.900000E-01   1.00800           0
     19970 MEMB     173      SAPC     C36      CTL2    -0.180000       12.0110           0
     19971 MEMB     173      SAPC     H6X      HAL2     0.900000E-01   1.00800           0
     19972 MEMB     173      SAPC     H6Y      HAL2     0.900000E-01   1.00800           0
     19973 MEMB     173      SAPC     C37      CTL2    -0.180000       12.0110           0
     19974 MEMB     173      SAPC     H7X      HAL2     0.900000E-01   1.00800           0
     19975 MEMB     173      SAPC     H7Y      HAL2     0.900000E-01   1.00800           0
     19976 MEMB     173      SAPC     C38      CTL2    -0.180000       12.0110           0
     19977 MEMB     173      SAPC     H8X      HAL2     0.900000E-01   1.00800           0
     19978 MEMB     173      SAPC     H8Y      HAL2     0.900000E-01   1.00800           0
     19979 MEMB     173      SAPC     C39      CTL2    -0.180000       12.0110           0
     19980 MEMB     173      SAPC     H9X      HAL2     0.900000E-01   1.00800           0
     19981 MEMB     173      SAPC     H9Y      HAL2     0.900000E-01   1.00800           0
     19982 MEMB     173      SAPC     C310     CTL2    -0.180000       12.0110           0
     19983 MEMB     173      SAPC     H10X     HAL2     0.900000E-01   1.00800           0
     19984 MEMB     173      SAPC     H10Y     HAL2     0.900000E-01   1.00800           0
     19985 MEMB     173      SAPC     C311     CTL2    -0.180000       12.0110           0
     19986 MEMB     173      SAPC     H11X     HAL2     0.900000E-01   1.00800           0
     19987 MEMB     173      SAPC     H11Y     HAL2     0.900000E-01   1.00800           0
     19988 MEMB     173      SAPC     C312     CTL2    -0.180000       12.0110           0
     19989 MEMB     173      SAPC     H12X     HAL2     0.900000E-01   1.00800           0
     19990 MEMB     173      SAPC     H12Y     HAL2     0.900000E-01   1.00800           0
     19991 MEMB     173      SAPC     C313     CTL2    -0.180000       12.0110           0
     19992 MEMB     173      SAPC     H13X     HAL2     0.900000E-01   1.00800           0
     19993 MEMB     173      SAPC     H13Y     HAL2     0.900000E-01   1.00800           0
     19994 MEMB     173      SAPC     C314     CTL2    -0.180000       12.0110           0
     19995 MEMB     173      SAPC     H14X     HAL2     0.900000E-01   1.00800           0
     19996 MEMB     173      SAPC     H14Y     HAL2     0.900000E-01   1.00800           0
     19997 MEMB     173      SAPC     C315     CTL2    -0.180000       12.0110           0
     19998 MEMB     173      SAPC     H15X     HAL2     0.900000E-01   1.00800           0
     19999 MEMB     173      SAPC     H15Y     HAL2     0.900000E-01   1.00800           0
     20000 MEMB     173      SAPC     C316     CTL2    -0.180000       12.0110           0
     20001 MEMB     173      SAPC     H16X     HAL2     0.900000E-01   1.00800           0
     20002 MEMB     173      SAPC     H16Y     HAL2     0.900000E-01   1.00800           0
     20003 MEMB     173      SAPC     C317     CTL2    -0.180000       12.0110           0
     20004 MEMB     173      SAPC     H17X     HAL2     0.900000E-01   1.00800           0
     20005 MEMB     173      SAPC     H17Y     HAL2     0.900000E-01   1.00800           0
     20006 MEMB     173      SAPC     C318     CTL3    -0.270000       12.0110           0
     20007 MEMB     173      SAPC     H18X     HAL3     0.900000E-01   1.00800           0
     20008 MEMB     173      SAPC     H18Y     HAL3     0.900000E-01   1.00800           0
     20009 MEMB     173      SAPC     H18Z     HAL3     0.900000E-01   1.00800           0
     20010 MEMB     174      SAPE     N        NH3L    -0.300000       14.0070           0
     20011 MEMB     174      SAPE     HN1      HCL      0.330000       1.00800           0
     20012 MEMB     174      SAPE     HN2      HCL      0.330000       1.00800           0
     20013 MEMB     174      SAPE     HN3      HCL      0.330000       1.00800           0
     20014 MEMB     174      SAPE     C12      CTL2     0.130000       12.0110           0
     20015 MEMB     174      SAPE     H12A     HAL2     0.900000E-01   1.00800           0
     20016 MEMB     174      SAPE     H12B     HAL2     0.900000E-01   1.00800           0
     20017 MEMB     174      SAPE     C11      CTL2    -0.800000E-01   12.0110           0
     20018 MEMB     174      SAPE     H11A     HAL2     0.900000E-01   1.00800           0
     20019 MEMB     174      SAPE     H11B     HAL2     0.900000E-01   1.00800           0
     20020 MEMB     174      SAPE     P        PL        1.50000       30.9740           0
     20021 MEMB     174      SAPE     O13      O2L     -0.780000       15.9994           0
     20022 MEMB     174      SAPE     O14      O2L     -0.780000       15.9994           0
     20023 MEMB     174      SAPE     O12      OSLP    -0.570000       15.9994           0
     20024 MEMB     174      SAPE     O11      OSLP    -0.570000       15.9994           0
     20025 MEMB     174      SAPE     C1       CTL2    -0.800000E-01   12.0110           0
     20026 MEMB     174      SAPE     HA       HAL2     0.900000E-01   1.00800           0
     20027 MEMB     174      SAPE     HB       HAL2     0.900000E-01   1.00800           0
     20028 MEMB     174      SAPE     C2       CTL1     0.170000       12.0110           0
     20029 MEMB     174      SAPE     HS       HAL1     0.900000E-01   1.00800           0
     20030 MEMB     174      SAPE     O21      OSL     -0.490000       15.9994           0
     20031 MEMB     174      SAPE     C21      CL       0.900000       12.0110           0
     20032 MEMB     174      SAPE     O22      OBL     -0.630000       15.9994           0
     20033 MEMB     174      SAPE     C22      CTL2    -0.220000       12.0110           0
     20034 MEMB     174      SAPE     H2R      HAL2     0.900000E-01   1.00800           0
     20035 MEMB     174      SAPE     H2S      HAL2     0.900000E-01   1.00800           0
     20036 MEMB     174      SAPE     C3       CTL2     0.800000E-01   12.0110           0
     20037 MEMB     174      SAPE     HX       HAL2     0.900000E-01   1.00800           0
     20038 MEMB     174      SAPE     HY       HAL2     0.900000E-01   1.00800           0
     20039 MEMB     174      SAPE     O31      OSL     -0.490000       15.9994           0
     20040 MEMB     174      SAPE     C31      CL       0.900000       12.0110           0
     20041 MEMB     174      SAPE     O32      OBL     -0.630000       15.9994           0
     20042 MEMB     174      SAPE     C32      CTL2    -0.220000       12.0110           0
     20043 MEMB     174      SAPE     H2X      HAL2     0.900000E-01   1.00800           0
     20044 MEMB     174      SAPE     H2Y      HAL2     0.900000E-01   1.00800           0
     20045 MEMB     174      SAPE     C23      CTL2    -0.180000       12.0110           0
     20046 MEMB     174      SAPE     H3R      HAL2     0.900000E-01   1.00800           0
     20047 MEMB     174      SAPE     H3S      HAL2     0.900000E-01   1.00800           0
     20048 MEMB     174      SAPE     C24      CTL2    -0.180000       12.0110           0
     20049 MEMB     174      SAPE     H4R      HAL2     0.900000E-01   1.00800           0
     20050 MEMB     174      SAPE     H4S      HAL2     0.900000E-01   1.00800           0
     20051 MEMB     174      SAPE     C25      CEL1    -0.150000       12.0110           0
     20052 MEMB     174      SAPE     H5R      HEL1     0.150000       1.00800           0
     20053 MEMB     174      SAPE     C26      CEL1    -0.150000       12.0110           0
     20054 MEMB     174      SAPE     H6R      HEL1     0.150000       1.00800           0
     20055 MEMB     174      SAPE     C27      CTL2    -0.180000       12.0110           0
     20056 MEMB     174      SAPE     H7R      HAL2     0.900000E-01   1.00800           0
     20057 MEMB     174      SAPE     H7S      HAL2     0.900000E-01   1.00800           0
     20058 MEMB     174      SAPE     C28      CEL1    -0.150000       12.0110           0
     20059 MEMB     174      SAPE     H8R      HEL1     0.150000       1.00800           0
     20060 MEMB     174      SAPE     C29      CEL1    -0.150000       12.0110           0
     20061 MEMB     174      SAPE     H9R      HEL1     0.150000       1.00800           0
     20062 MEMB     174      SAPE     C210     CTL2    -0.180000       12.0110           0
     20063 MEMB     174      SAPE     H10R     HAL2     0.900000E-01   1.00800           0
     20064 MEMB     174      SAPE     H10S     HAL2     0.900000E-01   1.00800           0
     20065 MEMB     174      SAPE     C211     CEL1    -0.150000       12.0110           0
     20066 MEMB     174      SAPE     H11R     HEL1     0.150000       1.00800           0
     20067 MEMB     174      SAPE     C212     CEL1    -0.150000       12.0110           0
     20068 MEMB     174      SAPE     H12R     HEL1     0.150000       1.00800           0
     20069 MEMB     174      SAPE     C213     CTL2    -0.180000       12.0110           0
     20070 MEMB     174      SAPE     H13R     HAL2     0.900000E-01   1.00800           0
     20071 MEMB     174      SAPE     H13S     HAL2     0.900000E-01   1.00800           0
     20072 MEMB     174      SAPE     C214     CEL1    -0.150000       12.0110           0
     20073 MEMB     174      SAPE     H14R     HEL1     0.150000       1.00800           0
     20074 MEMB     174      SAPE     C215     CEL1    -0.150000       12.0110           0
     20075 MEMB     174      SAPE     H15R     HEL1     0.150000       1.00800           0
     20076 MEMB     174      SAPE     C216     CTL2    -0.180000       12.0110           0
     20077 MEMB     174      SAPE     H16R     HAL2     0.900000E-01   1.00800           0
     20078 MEMB     174      SAPE     H16S     HAL2     0.900000E-01   1.00800           0
     20079 MEMB     174      SAPE     C217     CTL2    -0.180000       12.0110           0
     20080 MEMB     174      SAPE     H17R     HAL2     0.900000E-01   1.00800           0
     20081 MEMB     174      SAPE     H17S     HAL2     0.900000E-01   1.00800           0
     20082 MEMB     174      SAPE     C218     CTL2    -0.180000       12.0110           0
     20083 MEMB     174      SAPE     H18R     HAL2     0.900000E-01   1.00800           0
     20084 MEMB     174      SAPE     H18S     HAL2     0.900000E-01   1.00800           0
     20085 MEMB     174      SAPE     C219     CTL2    -0.180000       12.0110           0
     20086 MEMB     174      SAPE     H19R     HAL2     0.900000E-01   1.00800           0
     20087 MEMB     174      SAPE     H19S     HAL2     0.900000E-01   1.00800           0
     20088 MEMB     174      SAPE     C220     CTL3    -0.270000       12.0110           0
     20089 MEMB     174      SAPE     H20R     HAL3     0.900000E-01   1.00800           0
     20090 MEMB     174      SAPE     H20S     HAL3     0.900000E-01   1.00800           0
     20091 MEMB     174      SAPE     H20T     HAL3     0.900000E-01   1.00800           0
     20092 MEMB     174      SAPE     C33      CTL2    -0.180000       12.0110           0
     20093 MEMB     174      SAPE     H3X      HAL2     0.900000E-01   1.00800           0
     20094 MEMB     174      SAPE     H3Y      HAL2     0.900000E-01   1.00800           0
     20095 MEMB     174      SAPE     C34      CTL2    -0.180000       12.0110           0
     20096 MEMB     174      SAPE     H4X      HAL2     0.900000E-01   1.00800           0
     20097 MEMB     174      SAPE     H4Y      HAL2     0.900000E-01   1.00800           0
     20098 MEMB     174      SAPE     C35      CTL2    -0.180000       12.0110           0
     20099 MEMB     174      SAPE     H5X      HAL2     0.900000E-01   1.00800           0
     20100 MEMB     174      SAPE     H5Y      HAL2     0.900000E-01   1.00800           0
     20101 MEMB     174      SAPE     C36      CTL2    -0.180000       12.0110           0
     20102 MEMB     174      SAPE     H6X      HAL2     0.900000E-01   1.00800           0
     20103 MEMB     174      SAPE     H6Y      HAL2     0.900000E-01   1.00800           0
     20104 MEMB     174      SAPE     C37      CTL2    -0.180000       12.0110           0
     20105 MEMB     174      SAPE     H7X      HAL2     0.900000E-01   1.00800           0
     20106 MEMB     174      SAPE     H7Y      HAL2     0.900000E-01   1.00800           0
     20107 MEMB     174      SAPE     C38      CTL2    -0.180000       12.0110           0
     20108 MEMB     174      SAPE     H8X      HAL2     0.900000E-01   1.00800           0
     20109 MEMB     174      SAPE     H8Y      HAL2     0.900000E-01   1.00800           0
     20110 MEMB     174      SAPE     C39      CTL2    -0.180000       12.0110           0
     20111 MEMB     174      SAPE     H9X      HAL2     0.900000E-01   1.00800           0
     20112 MEMB     174      SAPE     H9Y      HAL2     0.900000E-01   1.00800           0
     20113 MEMB     174      SAPE     C310     CTL2    -0.180000       12.0110           0
     20114 MEMB     174      SAPE     H10X     HAL2     0.900000E-01   1.00800           0
     20115 MEMB     174      SAPE     H10Y     HAL2     0.900000E-01   1.00800           0
     20116 MEMB     174      SAPE     C311     CTL2    -0.180000       12.0110           0
     20117 MEMB     174      SAPE     H11X     HAL2     0.900000E-01   1.00800           0
     20118 MEMB     174      SAPE     H11Y     HAL2     0.900000E-01   1.00800           0
     20119 MEMB     174      SAPE     C312     CTL2    -0.180000       12.0110           0
     20120 MEMB     174      SAPE     H12X     HAL2     0.900000E-01   1.00800           0
     20121 MEMB     174      SAPE     H12Y     HAL2     0.900000E-01   1.00800           0
     20122 MEMB     174      SAPE     C313     CTL2    -0.180000       12.0110           0
     20123 MEMB     174      SAPE     H13X     HAL2     0.900000E-01   1.00800           0
     20124 MEMB     174      SAPE     H13Y     HAL2     0.900000E-01   1.00800           0
     20125 MEMB     174      SAPE     C314     CTL2    -0.180000       12.0110           0
     20126 MEMB     174      SAPE     H14X     HAL2     0.900000E-01   1.00800           0
     20127 MEMB     174      SAPE     H14Y     HAL2     0.900000E-01   1.00800           0
     20128 MEMB     174      SAPE     C315     CTL2    -0.180000       12.0110           0
     20129 MEMB     174      SAPE     H15X     HAL2     0.900000E-01   1.00800           0
     20130 MEMB     174      SAPE     H15Y     HAL2     0.900000E-01   1.00800           0
     20131 MEMB     174      SAPE     C316     CTL2    -0.180000       12.0110           0
     20132 MEMB     174      SAPE     H16X     HAL2     0.900000E-01   1.00800           0
     20133 MEMB     174      SAPE     H16Y     HAL2     0.900000E-01   1.00800           0
     20134 MEMB     174      SAPE     C317     CTL2    -0.180000       12.0110           0
     20135 MEMB     174      SAPE     H17X     HAL2     0.900000E-01   1.00800           0
     20136 MEMB     174      SAPE     H17Y     HAL2     0.900000E-01   1.00800           0
     20137 MEMB     174      SAPE     C318     CTL3    -0.270000       12.0110           0
     20138 MEMB     174      SAPE     H18X     HAL3     0.900000E-01   1.00800           0
     20139 MEMB     174      SAPE     H18Y     HAL3     0.900000E-01   1.00800           0
     20140 MEMB     174      SAPE     H18Z     HAL3     0.900000E-01   1.00800           0
     20141 MEMB     175      OSM      N        NTL     -0.600000       14.0070           0
     20142 MEMB     175      OSM      C15      CTL5    -0.350000       12.0110           0
     20143 MEMB     175      OSM      H15A     HL       0.250000       1.00800           0
     20144 MEMB     175      OSM      H15B     HL       0.250000       1.00800           0
     20145 MEMB     175      OSM      H15C     HL       0.250000       1.00800           0
     20146 MEMB     175      OSM      C14      CTL5    -0.350000       12.0110           0
     20147 MEMB     175      OSM      H14A     HL       0.250000       1.00800           0
     20148 MEMB     175      OSM      H14B     HL       0.250000       1.00800           0
     20149 MEMB     175      OSM      H14C     HL       0.250000       1.00800           0
     20150 MEMB     175      OSM      C13      CTL5    -0.350000       12.0110           0
     20151 MEMB     175      OSM      H13A     HL       0.250000       1.00800           0
     20152 MEMB     175      OSM      H13B     HL       0.250000       1.00800           0
     20153 MEMB     175      OSM      H13C     HL       0.250000       1.00800           0
     20154 MEMB     175      OSM      C12      CTL2    -0.100000       12.0110           0
     20155 MEMB     175      OSM      H12A     HL       0.250000       1.00800           0
     20156 MEMB     175      OSM      H12B     HL       0.250000       1.00800           0
     20157 MEMB     175      OSM      C11      CTL2    -0.800000E-01   12.0110           0
     20158 MEMB     175      OSM      H11A     HAL2     0.900000E-01   1.00800           0
     20159 MEMB     175      OSM      H11B     HAL2     0.900000E-01   1.00800           0
     20160 MEMB     175      OSM      P        PL        1.50000       30.9740           0
     20161 MEMB     175      OSM      O13      O2L     -0.780000       15.9994           0
     20162 MEMB     175      OSM      O14      O2L     -0.780000       15.9994           0
     20163 MEMB     175      OSM      O11      OSLP    -0.570000       15.9994           0
     20164 MEMB     175      OSM      O12      OSLP    -0.570000       15.9994           0
     20165 MEMB     175      OSM      C1S      CTL2    -0.800000E-01   12.0110           0
     20166 MEMB     175      OSM      H1S      HAL2     0.900000E-01   1.00800           0
     20167 MEMB     175      OSM      H1T      HAL2     0.900000E-01   1.00800           0
     20168 MEMB     175      OSM      NF       NHL     -0.700000       14.0070           0
     20169 MEMB     175      OSM      HNF      H        0.350000       1.00800           0
     20170 MEMB     175      OSM      C2S      CTL1     0.300000       12.0110           0
     20171 MEMB     175      OSM      H2S      HAL1     0.500000E-01   1.00800           0
     20172 MEMB     175      OSM      C3S      CTO1     0.500000       12.0110           0
     20173 MEMB     175      OSM      H3S      HAL1    -0.110000       1.00800           0
     20174 MEMB     175      OSM      O3       OHL     -0.690000       15.9994           0
     20175 MEMB     175      OSM      HO3      HOL      0.300000       1.00800           0
     20176 MEMB     175      OSM      C4S      CEL3    -0.150000       12.0110           0
     20177 MEMB     175      OSM      H4S      HEL1     0.150000       1.00800           0
     20178 MEMB     175      OSM      C5S      CEL3    -0.150000       12.0110           0
     20179 MEMB     175      OSM      H5S      HEL1     0.150000       1.00800           0
     20180 MEMB     175      OSM      C6S      CTL2    -0.180000       12.0110           0
     20181 MEMB     175      OSM      H6S      HAL2     0.900000E-01   1.00800           0
     20182 MEMB     175      OSM      H6T      HAL2     0.900000E-01   1.00800           0
     20183 MEMB     175      OSM      C7S      CTL2    -0.180000       12.0110           0
     20184 MEMB     175      OSM      H7S      HAL2     0.900000E-01   1.00800           0
     20185 MEMB     175      OSM      H7T      HAL2     0.900000E-01   1.00800           0
     20186 MEMB     175      OSM      C8S      CTL2    -0.180000       12.0110           0
     20187 MEMB     175      OSM      H8S      HAL2     0.900000E-01   1.00800           0
     20188 MEMB     175      OSM      H8T      HAL2     0.900000E-01   1.00800           0
     20189 MEMB     175      OSM      C9S      CTL2    -0.180000       12.0110           0
     20190 MEMB     175      OSM      H9S      HAL2     0.900000E-01   1.00800           0
     20191 MEMB     175      OSM      H9T      HAL2     0.900000E-01   1.00800           0
     20192 MEMB     175      OSM      C10S     CTL2    -0.180000       12.0110           0
     20193 MEMB     175      OSM      H10S     HAL2     0.900000E-01   1.00800           0
     20194 MEMB     175      OSM      H10T     HAL2     0.900000E-01   1.00800           0
     20195 MEMB     175      OSM      C11S     CTL2    -0.180000       12.0110           0
     20196 MEMB     175      OSM      H11S     HAL2     0.900000E-01   1.00800           0
     20197 MEMB     175      OSM      H11T     HAL2     0.900000E-01   1.00800           0
     20198 MEMB     175      OSM      C12S     CTL2    -0.180000       12.0110           0
     20199 MEMB     175      OSM      H12S     HAL2     0.900000E-01   1.00800           0
     20200 MEMB     175      OSM      H12T     HAL2     0.900000E-01   1.00800           0
     20201 MEMB     175      OSM      C13S     CTL2    -0.180000       12.0110           0
     20202 MEMB     175      OSM      H13S     HAL2     0.900000E-01   1.00800           0
     20203 MEMB     175      OSM      H13T     HAL2     0.900000E-01   1.00800           0
     20204 MEMB     175      OSM      C14S     CTL2    -0.180000       12.0110           0
     20205 MEMB     175      OSM      H14S     HAL2     0.900000E-01   1.00800           0
     20206 MEMB     175      OSM      H14T     HAL2     0.900000E-01   1.00800           0
     20207 MEMB     175      OSM      C15S     CTL2    -0.180000       12.0110           0
     20208 MEMB     175      OSM      H15S     HAL2     0.900000E-01   1.00800           0
     20209 MEMB     175      OSM      H15T     HAL2     0.900000E-01   1.00800           0
     20210 MEMB     175      OSM      C16S     CTL2    -0.180000       12.0110           0
     20211 MEMB     175      OSM      H16S     HAL2     0.900000E-01   1.00800           0
     20212 MEMB     175      OSM      H16T     HAL2     0.900000E-01   1.00800           0
     20213 MEMB     175      OSM      C17S     CTL2    -0.180000       12.0110           0
     20214 MEMB     175      OSM      H17S     HAL2     0.900000E-01   1.00800           0
     20215 MEMB     175      OSM      H17T     HAL2     0.900000E-01   1.00800           0
     20216 MEMB     175      OSM      C18S     CTL3    -0.270000       12.0110           0
     20217 MEMB     175      OSM      H18S     HAL3     0.900000E-01   1.00800           0
     20218 MEMB     175      OSM      H18T     HAL3     0.900000E-01   1.00800           0
     20219 MEMB     175      OSM      H18U     HAL3     0.900000E-01   1.00800           0
     20220 MEMB     175      OSM      C1F      C        0.550000       12.0110           0
     20221 MEMB     175      OSM      OF       O       -0.600000       15.9994           0
     20222 MEMB     175      OSM      C2F      CTL2    -0.700000E-01   12.0110           0
     20223 MEMB     175      OSM      H2F      HAL2     0.600000E-01   1.00800           0
     20224 MEMB     175      OSM      H2G      HAL2     0.600000E-01   1.00800           0
     20225 MEMB     175      OSM      C3F      CTL2    -0.180000       12.0110           0
     20226 MEMB     175      OSM      H3F      HAL2     0.900000E-01   1.00800           0
     20227 MEMB     175      OSM      H3G      HAL2     0.900000E-01   1.00800           0
     20228 MEMB     175      OSM      C4F      CTL2    -0.180000       12.0110           0
     20229 MEMB     175      OSM      H4F      HAL2     0.900000E-01   1.00800           0
     20230 MEMB     175      OSM      H4G      HAL2     0.900000E-01   1.00800           0
     20231 MEMB     175      OSM      C5F      CTL2    -0.180000       12.0110           0
     20232 MEMB     175      OSM      H5F      HAL2     0.900000E-01   1.00800           0
     20233 MEMB     175      OSM      H5G      HAL2     0.900000E-01   1.00800           0
     20234 MEMB     175      OSM      C6F      CTL2    -0.180000       12.0110           0
     20235 MEMB     175      OSM      H6F      HAL2     0.900000E-01   1.00800           0
     20236 MEMB     175      OSM      H6G      HAL2     0.900000E-01   1.00800           0
     20237 MEMB     175      OSM      C7F      CTL2    -0.180000       12.0110           0
     20238 MEMB     175      OSM      H7F      HAL2     0.900000E-01   1.00800           0
     20239 MEMB     175      OSM      H7G      HAL2     0.900000E-01   1.00800           0
     20240 MEMB     175      OSM      C8F      CTL2    -0.180000       12.0110           0
     20241 MEMB     175      OSM      H8F      HAL2     0.900000E-01   1.00800           0
     20242 MEMB     175      OSM      H8G      HAL2     0.900000E-01   1.00800           0
     20243 MEMB     175      OSM      C9F      CEL1    -0.150000       12.0110           0
     20244 MEMB     175      OSM      H9F      HEL1     0.150000       1.00800           0
     20245 MEMB     175      OSM      C10F     CEL1    -0.150000       12.0110           0
     20246 MEMB     175      OSM      H10F     HEL1     0.150000       1.00800           0
     20247 MEMB     175      OSM      C11F     CTL2    -0.180000       12.0110           0
     20248 MEMB     175      OSM      H11F     HAL2     0.900000E-01   1.00800           0
     20249 MEMB     175      OSM      H11G     HAL2     0.900000E-01   1.00800           0
     20250 MEMB     175      OSM      C12F     CTL2    -0.180000       12.0110           0
     20251 MEMB     175      OSM      H12F     HAL2     0.900000E-01   1.00800           0
     20252 MEMB     175      OSM      H12G     HAL2     0.900000E-01   1.00800           0
     20253 MEMB     175      OSM      C13F     CTL2    -0.180000       12.0110           0
     20254 MEMB     175      OSM      H13F     HAL2     0.900000E-01   1.00800           0
     20255 MEMB     175      OSM      H13G     HAL2     0.900000E-01   1.00800           0
     20256 MEMB     175      OSM      C14F     CTL2    -0.180000       12.0110           0
     20257 MEMB     175      OSM      H14F     HAL2     0.900000E-01   1.00800           0
     20258 MEMB     175      OSM      H14G     HAL2     0.900000E-01   1.00800           0
     20259 MEMB     175      OSM      C15F     CTL2    -0.180000       12.0110           0
     20260 MEMB     175      OSM      H15F     HAL2     0.900000E-01   1.00800           0
     20261 MEMB     175      OSM      H15G     HAL2     0.900000E-01   1.00800           0
     20262 MEMB     175      OSM      C16F     CTL2    -0.180000       12.0110           0
     20263 MEMB     175      OSM      H16F     HAL2     0.900000E-01   1.00800           0
     20264 MEMB     175      OSM      H16G     HAL2     0.900000E-01   1.00800           0
     20265 MEMB     175      OSM      C17F     CTL2    -0.180000       12.0110           0
     20266 MEMB     175      OSM      H17F     HAL2     0.900000E-01   1.00800           0
     20267 MEMB     175      OSM      H17G     HAL2     0.900000E-01   1.00800           0
     20268 MEMB     175      OSM      C18F     CTL3    -0.270000       12.0110           0
     20269 MEMB     175      OSM      H18F     HAL3     0.900000E-01   1.00800           0
     20270 MEMB     175      OSM      H18G     HAL3     0.900000E-01   1.00800           0
     20271 MEMB     175      OSM      H18H     HAL3     0.900000E-01   1.00800           0
     20272 MEMB     176      SAPE     N        NH3L    -0.300000       14.0070           0
     20273 MEMB     176      SAPE     HN1      HCL      0.330000       1.00800           0
     20274 MEMB     176      SAPE     HN2      HCL      0.330000       1.00800           0
     20275 MEMB     176      SAPE     HN3      HCL      0.330000       1.00800           0
     20276 MEMB     176      SAPE     C12      CTL2     0.130000       12.0110           0
     20277 MEMB     176      SAPE     H12A     HAL2     0.900000E-01   1.00800           0
     20278 MEMB     176      SAPE     H12B     HAL2     0.900000E-01   1.00800           0
     20279 MEMB     176      SAPE     C11      CTL2    -0.800000E-01   12.0110           0
     20280 MEMB     176      SAPE     H11A     HAL2     0.900000E-01   1.00800           0
     20281 MEMB     176      SAPE     H11B     HAL2     0.900000E-01   1.00800           0
     20282 MEMB     176      SAPE     P        PL        1.50000       30.9740           0
     20283 MEMB     176      SAPE     O13      O2L     -0.780000       15.9994           0
     20284 MEMB     176      SAPE     O14      O2L     -0.780000       15.9994           0
     20285 MEMB     176      SAPE     O12      OSLP    -0.570000       15.9994           0
     20286 MEMB     176      SAPE     O11      OSLP    -0.570000       15.9994           0
     20287 MEMB     176      SAPE     C1       CTL2    -0.800000E-01   12.0110           0
     20288 MEMB     176      SAPE     HA       HAL2     0.900000E-01   1.00800           0
     20289 MEMB     176      SAPE     HB       HAL2     0.900000E-01   1.00800           0
     20290 MEMB     176      SAPE     C2       CTL1     0.170000       12.0110           0
     20291 MEMB     176      SAPE     HS       HAL1     0.900000E-01   1.00800           0
     20292 MEMB     176      SAPE     O21      OSL     -0.490000       15.9994           0
     20293 MEMB     176      SAPE     C21      CL       0.900000       12.0110           0
     20294 MEMB     176      SAPE     O22      OBL     -0.630000       15.9994           0
     20295 MEMB     176      SAPE     C22      CTL2    -0.220000       12.0110           0
     20296 MEMB     176      SAPE     H2R      HAL2     0.900000E-01   1.00800           0
     20297 MEMB     176      SAPE     H2S      HAL2     0.900000E-01   1.00800           0
     20298 MEMB     176      SAPE     C3       CTL2     0.800000E-01   12.0110           0
     20299 MEMB     176      SAPE     HX       HAL2     0.900000E-01   1.00800           0
     20300 MEMB     176      SAPE     HY       HAL2     0.900000E-01   1.00800           0
     20301 MEMB     176      SAPE     O31      OSL     -0.490000       15.9994           0
     20302 MEMB     176      SAPE     C31      CL       0.900000       12.0110           0
     20303 MEMB     176      SAPE     O32      OBL     -0.630000       15.9994           0
     20304 MEMB     176      SAPE     C32      CTL2    -0.220000       12.0110           0
     20305 MEMB     176      SAPE     H2X      HAL2     0.900000E-01   1.00800           0
     20306 MEMB     176      SAPE     H2Y      HAL2     0.900000E-01   1.00800           0
     20307 MEMB     176      SAPE     C23      CTL2    -0.180000       12.0110           0
     20308 MEMB     176      SAPE     H3R      HAL2     0.900000E-01   1.00800           0
     20309 MEMB     176      SAPE     H3S      HAL2     0.900000E-01   1.00800           0
     20310 MEMB     176      SAPE     C24      CTL2    -0.180000       12.0110           0
     20311 MEMB     176      SAPE     H4R      HAL2     0.900000E-01   1.00800           0
     20312 MEMB     176      SAPE     H4S      HAL2     0.900000E-01   1.00800           0
     20313 MEMB     176      SAPE     C25      CEL1    -0.150000       12.0110           0
     20314 MEMB     176      SAPE     H5R      HEL1     0.150000       1.00800           0
     20315 MEMB     176      SAPE     C26      CEL1    -0.150000       12.0110           0
     20316 MEMB     176      SAPE     H6R      HEL1     0.150000       1.00800           0
     20317 MEMB     176      SAPE     C27      CTL2    -0.180000       12.0110           0
     20318 MEMB     176      SAPE     H7R      HAL2     0.900000E-01   1.00800           0
     20319 MEMB     176      SAPE     H7S      HAL2     0.900000E-01   1.00800           0
     20320 MEMB     176      SAPE     C28      CEL1    -0.150000       12.0110           0
     20321 MEMB     176      SAPE     H8R      HEL1     0.150000       1.00800           0
     20322 MEMB     176      SAPE     C29      CEL1    -0.150000       12.0110           0
     20323 MEMB     176      SAPE     H9R      HEL1     0.150000       1.00800           0
     20324 MEMB     176      SAPE     C210     CTL2    -0.180000       12.0110           0
     20325 MEMB     176      SAPE     H10R     HAL2     0.900000E-01   1.00800           0
     20326 MEMB     176      SAPE     H10S     HAL2     0.900000E-01   1.00800           0
     20327 MEMB     176      SAPE     C211     CEL1    -0.150000       12.0110           0
     20328 MEMB     176      SAPE     H11R     HEL1     0.150000       1.00800           0
     20329 MEMB     176      SAPE     C212     CEL1    -0.150000       12.0110           0
     20330 MEMB     176      SAPE     H12R     HEL1     0.150000       1.00800           0
     20331 MEMB     176      SAPE     C213     CTL2    -0.180000       12.0110           0
     20332 MEMB     176      SAPE     H13R     HAL2     0.900000E-01   1.00800           0
     20333 MEMB     176      SAPE     H13S     HAL2     0.900000E-01   1.00800           0
     20334 MEMB     176      SAPE     C214     CEL1    -0.150000       12.0110           0
     20335 MEMB     176      SAPE     H14R     HEL1     0.150000       1.00800           0
     20336 MEMB     176      SAPE     C215     CEL1    -0.150000       12.0110           0
     20337 MEMB     176      SAPE     H15R     HEL1     0.150000       1.00800           0
     20338 MEMB     176      SAPE     C216     CTL2    -0.180000       12.0110           0
     20339 MEMB     176      SAPE     H16R     HAL2     0.900000E-01   1.00800           0
     20340 MEMB     176      SAPE     H16S     HAL2     0.900000E-01   1.00800           0
     20341 MEMB     176      SAPE     C217     CTL2    -0.180000       12.0110           0
     20342 MEMB     176      SAPE     H17R     HAL2     0.900000E-01   1.00800           0
     20343 MEMB     176      SAPE     H17S     HAL2     0.900000E-01   1.00800           0
     20344 MEMB     176      SAPE     C218     CTL2    -0.180000       12.0110           0
     20345 MEMB     176      SAPE     H18R     HAL2     0.900000E-01   1.00800           0
     20346 MEMB     176      SAPE     H18S     HAL2     0.900000E-01   1.00800           0
     20347 MEMB     176      SAPE     C219     CTL2    -0.180000       12.0110           0
     20348 MEMB     176      SAPE     H19R     HAL2     0.900000E-01   1.00800           0
     20349 MEMB     176      SAPE     H19S     HAL2     0.900000E-01   1.00800           0
     20350 MEMB     176      SAPE     C220     CTL3    -0.270000       12.0110           0
     20351 MEMB     176      SAPE     H20R     HAL3     0.900000E-01   1.00800           0
     20352 MEMB     176      SAPE     H20S     HAL3     0.900000E-01   1.00800           0
     20353 MEMB     176      SAPE     H20T     HAL3     0.900000E-01   1.00800           0
     20354 MEMB     176      SAPE     C33      CTL2    -0.180000       12.0110           0
     20355 MEMB     176      SAPE     H3X      HAL2     0.900000E-01   1.00800           0
     20356 MEMB     176      SAPE     H3Y      HAL2     0.900000E-01   1.00800           0
     20357 MEMB     176      SAPE     C34      CTL2    -0.180000       12.0110           0
     20358 MEMB     176      SAPE     H4X      HAL2     0.900000E-01   1.00800           0
     20359 MEMB     176      SAPE     H4Y      HAL2     0.900000E-01   1.00800           0
     20360 MEMB     176      SAPE     C35      CTL2    -0.180000       12.0110           0
     20361 MEMB     176      SAPE     H5X      HAL2     0.900000E-01   1.00800           0
     20362 MEMB     176      SAPE     H5Y      HAL2     0.900000E-01   1.00800           0
     20363 MEMB     176      SAPE     C36      CTL2    -0.180000       12.0110           0
     20364 MEMB     176      SAPE     H6X      HAL2     0.900000E-01   1.00800           0
     20365 MEMB     176      SAPE     H6Y      HAL2     0.900000E-01   1.00800           0
     20366 MEMB     176      SAPE     C37      CTL2    -0.180000       12.0110           0
     20367 MEMB     176      SAPE     H7X      HAL2     0.900000E-01   1.00800           0
     20368 MEMB     176      SAPE     H7Y      HAL2     0.900000E-01   1.00800           0
     20369 MEMB     176      SAPE     C38      CTL2    -0.180000       12.0110           0
     20370 MEMB     176      SAPE     H8X      HAL2     0.900000E-01   1.00800           0
     20371 MEMB     176      SAPE     H8Y      HAL2     0.900000E-01   1.00800           0
     20372 MEMB     176      SAPE     C39      CTL2    -0.180000       12.0110           0
     20373 MEMB     176      SAPE     H9X      HAL2     0.900000E-01   1.00800           0
     20374 MEMB     176      SAPE     H9Y      HAL2     0.900000E-01   1.00800           0
     20375 MEMB     176      SAPE     C310     CTL2    -0.180000       12.0110           0
     20376 MEMB     176      SAPE     H10X     HAL2     0.900000E-01   1.00800           0
     20377 MEMB     176      SAPE     H10Y     HAL2     0.900000E-01   1.00800           0
     20378 MEMB     176      SAPE     C311     CTL2    -0.180000       12.0110           0
     20379 MEMB     176      SAPE     H11X     HAL2     0.900000E-01   1.00800           0
     20380 MEMB     176      SAPE     H11Y     HAL2     0.900000E-01   1.00800           0
     20381 MEMB     176      SAPE     C312     CTL2    -0.180000       12.0110           0
     20382 MEMB     176      SAPE     H12X     HAL2     0.900000E-01   1.00800           0
     20383 MEMB     176      SAPE     H12Y     HAL2     0.900000E-01   1.00800           0
     20384 MEMB     176      SAPE     C313     CTL2    -0.180000       12.0110           0
     20385 MEMB     176      SAPE     H13X     HAL2     0.900000E-01   1.00800           0
     20386 MEMB     176      SAPE     H13Y     HAL2     0.900000E-01   1.00800           0
     20387 MEMB     176      SAPE     C314     CTL2    -0.180000       12.0110           0
     20388 MEMB     176      SAPE     H14X     HAL2     0.900000E-01   1.00800           0
     20389 MEMB     176      SAPE     H14Y     HAL2     0.900000E-01   1.00800           0
     20390 MEMB     176      SAPE     C315     CTL2    -0.180000       12.0110           0
     20391 MEMB     176      SAPE     H15X     HAL2     0.900000E-01   1.00800           0
     20392 MEMB     176      SAPE     H15Y     HAL2     0.900000E-01   1.00800           0
     20393 MEMB     176      SAPE     C316     CTL2    -0.180000       12.0110           0
     20394 MEMB     176      SAPE     H16X     HAL2     0.900000E-01   1.00800           0
     20395 MEMB     176      SAPE     H16Y     HAL2     0.900000E-01   1.00800           0
     20396 MEMB     176      SAPE     C317     CTL2    -0.180000       12.0110           0
     20397 MEMB     176      SAPE     H17X     HAL2     0.900000E-01   1.00800           0
     20398 MEMB     176      SAPE     H17Y     HAL2     0.900000E-01   1.00800           0
     20399 MEMB     176      SAPE     C318     CTL3    -0.270000       12.0110           0
     20400 MEMB     176      SAPE     H18X     HAL3     0.900000E-01   1.00800           0
     20401 MEMB     176      SAPE     H18Y     HAL3     0.900000E-01   1.00800           0
     20402 MEMB     176      SAPE     H18Z     HAL3     0.900000E-01   1.00800           0
     20403 MEMB     177      OSM      N        NTL     -0.600000       14.0070           0
     20404 MEMB     177      OSM      C15      CTL5    -0.350000       12.0110           0
     20405 MEMB     177      OSM      H15A     HL       0.250000       1.00800           0
     20406 MEMB     177      OSM      H15B     HL       0.250000       1.00800           0
     20407 MEMB     177      OSM      H15C     HL       0.250000       1.00800           0
     20408 MEMB     177      OSM      C14      CTL5    -0.350000       12.0110           0
     20409 MEMB     177      OSM      H14A     HL       0.250000       1.00800           0
     20410 MEMB     177      OSM      H14B     HL       0.250000       1.00800           0
     20411 MEMB     177      OSM      H14C     HL       0.250000       1.00800           0
     20412 MEMB     177      OSM      C13      CTL5    -0.350000       12.0110           0
     20413 MEMB     177      OSM      H13A     HL       0.250000       1.00800           0
     20414 MEMB     177      OSM      H13B     HL       0.250000       1.00800           0
     20415 MEMB     177      OSM      H13C     HL       0.250000       1.00800           0
     20416 MEMB     177      OSM      C12      CTL2    -0.100000       12.0110           0
     20417 MEMB     177      OSM      H12A     HL       0.250000       1.00800           0
     20418 MEMB     177      OSM      H12B     HL       0.250000       1.00800           0
     20419 MEMB     177      OSM      C11      CTL2    -0.800000E-01   12.0110           0
     20420 MEMB     177      OSM      H11A     HAL2     0.900000E-01   1.00800           0
     20421 MEMB     177      OSM      H11B     HAL2     0.900000E-01   1.00800           0
     20422 MEMB     177      OSM      P        PL        1.50000       30.9740           0
     20423 MEMB     177      OSM      O13      O2L     -0.780000       15.9994           0
     20424 MEMB     177      OSM      O14      O2L     -0.780000       15.9994           0
     20425 MEMB     177      OSM      O11      OSLP    -0.570000       15.9994           0
     20426 MEMB     177      OSM      O12      OSLP    -0.570000       15.9994           0
     20427 MEMB     177      OSM      C1S      CTL2    -0.800000E-01   12.0110           0
     20428 MEMB     177      OSM      H1S      HAL2     0.900000E-01   1.00800           0
     20429 MEMB     177      OSM      H1T      HAL2     0.900000E-01   1.00800           0
     20430 MEMB     177      OSM      NF       NHL     -0.700000       14.0070           0
     20431 MEMB     177      OSM      HNF      H        0.350000       1.00800           0
     20432 MEMB     177      OSM      C2S      CTL1     0.300000       12.0110           0
     20433 MEMB     177      OSM      H2S      HAL1     0.500000E-01   1.00800           0
     20434 MEMB     177      OSM      C3S      CTO1     0.500000       12.0110           0
     20435 MEMB     177      OSM      H3S      HAL1    -0.110000       1.00800           0
     20436 MEMB     177      OSM      O3       OHL     -0.690000       15.9994           0
     20437 MEMB     177      OSM      HO3      HOL      0.300000       1.00800           0
     20438 MEMB     177      OSM      C4S      CEL3    -0.150000       12.0110           0
     20439 MEMB     177      OSM      H4S      HEL1     0.150000       1.00800           0
     20440 MEMB     177      OSM      C5S      CEL3    -0.150000       12.0110           0
     20441 MEMB     177      OSM      H5S      HEL1     0.150000       1.00800           0
     20442 MEMB     177      OSM      C6S      CTL2    -0.180000       12.0110           0
     20443 MEMB     177      OSM      H6S      HAL2     0.900000E-01   1.00800           0
     20444 MEMB     177      OSM      H6T      HAL2     0.900000E-01   1.00800           0
     20445 MEMB     177      OSM      C7S      CTL2    -0.180000       12.0110           0
     20446 MEMB     177      OSM      H7S      HAL2     0.900000E-01   1.00800           0
     20447 MEMB     177      OSM      H7T      HAL2     0.900000E-01   1.00800           0
     20448 MEMB     177      OSM      C8S      CTL2    -0.180000       12.0110           0
     20449 MEMB     177      OSM      H8S      HAL2     0.900000E-01   1.00800           0
     20450 MEMB     177      OSM      H8T      HAL2     0.900000E-01   1.00800           0
     20451 MEMB     177      OSM      C9S      CTL2    -0.180000       12.0110           0
     20452 MEMB     177      OSM      H9S      HAL2     0.900000E-01   1.00800           0
     20453 MEMB     177      OSM      H9T      HAL2     0.900000E-01   1.00800           0
     20454 MEMB     177      OSM      C10S     CTL2    -0.180000       12.0110           0
     20455 MEMB     177      OSM      H10S     HAL2     0.900000E-01   1.00800           0
     20456 MEMB     177      OSM      H10T     HAL2     0.900000E-01   1.00800           0
     20457 MEMB     177      OSM      C11S     CTL2    -0.180000       12.0110           0
     20458 MEMB     177      OSM      H11S     HAL2     0.900000E-01   1.00800           0
     20459 MEMB     177      OSM      H11T     HAL2     0.900000E-01   1.00800           0
     20460 MEMB     177      OSM      C12S     CTL2    -0.180000       12.0110           0
     20461 MEMB     177      OSM      H12S     HAL2     0.900000E-01   1.00800           0
     20462 MEMB     177      OSM      H12T     HAL2     0.900000E-01   1.00800           0
     20463 MEMB     177      OSM      C13S     CTL2    -0.180000       12.0110           0
     20464 MEMB     177      OSM      H13S     HAL2     0.900000E-01   1.00800           0
     20465 MEMB     177      OSM      H13T     HAL2     0.900000E-01   1.00800           0
     20466 MEMB     177      OSM      C14S     CTL2    -0.180000       12.0110           0
     20467 MEMB     177      OSM      H14S     HAL2     0.900000E-01   1.00800           0
     20468 MEMB     177      OSM      H14T     HAL2     0.900000E-01   1.00800           0
     20469 MEMB     177      OSM      C15S     CTL2    -0.180000       12.0110           0
     20470 MEMB     177      OSM      H15S     HAL2     0.900000E-01   1.00800           0
     20471 MEMB     177      OSM      H15T     HAL2     0.900000E-01   1.00800           0
     20472 MEMB     177      OSM      C16S     CTL2    -0.180000       12.0110           0
     20473 MEMB     177      OSM      H16S     HAL2     0.900000E-01   1.00800           0
     20474 MEMB     177      OSM      H16T     HAL2     0.900000E-01   1.00800           0
     20475 MEMB     177      OSM      C17S     CTL2    -0.180000       12.0110           0
     20476 MEMB     177      OSM      H17S     HAL2     0.900000E-01   1.00800           0
     20477 MEMB     177      OSM      H17T     HAL2     0.900000E-01   1.00800           0
     20478 MEMB     177      OSM      C18S     CTL3    -0.270000       12.0110           0
     20479 MEMB     177      OSM      H18S     HAL3     0.900000E-01   1.00800           0
     20480 MEMB     177      OSM      H18T     HAL3     0.900000E-01   1.00800           0
     20481 MEMB     177      OSM      H18U     HAL3     0.900000E-01   1.00800           0
     20482 MEMB     177      OSM      C1F      C        0.550000       12.0110           0
     20483 MEMB     177      OSM      OF       O       -0.600000       15.9994           0
     20484 MEMB     177      OSM      C2F      CTL2    -0.700000E-01   12.0110           0
     20485 MEMB     177      OSM      H2F      HAL2     0.600000E-01   1.00800           0
     20486 MEMB     177      OSM      H2G      HAL2     0.600000E-01   1.00800           0
     20487 MEMB     177      OSM      C3F      CTL2    -0.180000       12.0110           0
     20488 MEMB     177      OSM      H3F      HAL2     0.900000E-01   1.00800           0
     20489 MEMB     177      OSM      H3G      HAL2     0.900000E-01   1.00800           0
     20490 MEMB     177      OSM      C4F      CTL2    -0.180000       12.0110           0
     20491 MEMB     177      OSM      H4F      HAL2     0.900000E-01   1.00800           0
     20492 MEMB     177      OSM      H4G      HAL2     0.900000E-01   1.00800           0
     20493 MEMB     177      OSM      C5F      CTL2    -0.180000       12.0110           0
     20494 MEMB     177      OSM      H5F      HAL2     0.900000E-01   1.00800           0
     20495 MEMB     177      OSM      H5G      HAL2     0.900000E-01   1.00800           0
     20496 MEMB     177      OSM      C6F      CTL2    -0.180000       12.0110           0
     20497 MEMB     177      OSM      H6F      HAL2     0.900000E-01   1.00800           0
     20498 MEMB     177      OSM      H6G      HAL2     0.900000E-01   1.00800           0
     20499 MEMB     177      OSM      C7F      CTL2    -0.180000       12.0110           0
     20500 MEMB     177      OSM      H7F      HAL2     0.900000E-01   1.00800           0
     20501 MEMB     177      OSM      H7G      HAL2     0.900000E-01   1.00800           0
     20502 MEMB     177      OSM      C8F      CTL2    -0.180000       12.0110           0
     20503 MEMB     177      OSM      H8F      HAL2     0.900000E-01   1.00800           0
     20504 MEMB     177      OSM      H8G      HAL2     0.900000E-01   1.00800           0
     20505 MEMB     177      OSM      C9F      CEL1    -0.150000       12.0110           0
     20506 MEMB     177      OSM      H9F      HEL1     0.150000       1.00800           0
     20507 MEMB     177      OSM      C10F     CEL1    -0.150000       12.0110           0
     20508 MEMB     177      OSM      H10F     HEL1     0.150000       1.00800           0
     20509 MEMB     177      OSM      C11F     CTL2    -0.180000       12.0110           0
     20510 MEMB     177      OSM      H11F     HAL2     0.900000E-01   1.00800           0
     20511 MEMB     177      OSM      H11G     HAL2     0.900000E-01   1.00800           0
     20512 MEMB     177      OSM      C12F     CTL2    -0.180000       12.0110           0
     20513 MEMB     177      OSM      H12F     HAL2     0.900000E-01   1.00800           0
     20514 MEMB     177      OSM      H12G     HAL2     0.900000E-01   1.00800           0
     20515 MEMB     177      OSM      C13F     CTL2    -0.180000       12.0110           0
     20516 MEMB     177      OSM      H13F     HAL2     0.900000E-01   1.00800           0
     20517 MEMB     177      OSM      H13G     HAL2     0.900000E-01   1.00800           0
     20518 MEMB     177      OSM      C14F     CTL2    -0.180000       12.0110           0
     20519 MEMB     177      OSM      H14F     HAL2     0.900000E-01   1.00800           0
     20520 MEMB     177      OSM      H14G     HAL2     0.900000E-01   1.00800           0
     20521 MEMB     177      OSM      C15F     CTL2    -0.180000       12.0110           0
     20522 MEMB     177      OSM      H15F     HAL2     0.900000E-01   1.00800           0
     20523 MEMB     177      OSM      H15G     HAL2     0.900000E-01   1.00800           0
     20524 MEMB     177      OSM      C16F     CTL2    -0.180000       12.0110           0
     20525 MEMB     177      OSM      H16F     HAL2     0.900000E-01   1.00800           0
     20526 MEMB     177      OSM      H16G     HAL2     0.900000E-01   1.00800           0
     20527 MEMB     177      OSM      C17F     CTL2    -0.180000       12.0110           0
     20528 MEMB     177      OSM      H17F     HAL2     0.900000E-01   1.00800           0
     20529 MEMB     177      OSM      H17G     HAL2     0.900000E-01   1.00800           0
     20530 MEMB     177      OSM      C18F     CTL3    -0.270000       12.0110           0
     20531 MEMB     177      OSM      H18F     HAL3     0.900000E-01   1.00800           0
     20532 MEMB     177      OSM      H18G     HAL3     0.900000E-01   1.00800           0
     20533 MEMB     177      OSM      H18H     HAL3     0.900000E-01   1.00800           0
     20534 MEMB     178      CHL1     C3       CRL1     0.140000       12.0110           0
     20535 MEMB     178      CHL1     H3       HGA1     0.900000E-01   1.00800           0
     20536 MEMB     178      CHL1     O3       OHL     -0.660000       15.9994           0
     20537 MEMB     178      CHL1     H3'      HOL      0.430000       1.00800           0
     20538 MEMB     178      CHL1     C4       CRL2    -0.180000       12.0110           0
     20539 MEMB     178      CHL1     H4A      HGA2     0.900000E-01   1.00800           0
     20540 MEMB     178      CHL1     H4B      HGA2     0.900000E-01   1.00800           0
     20541 MEMB     178      CHL1     C5       CEL1      0.00000       12.0110           0
     20542 MEMB     178      CHL1     C6       CEL1    -0.150000       12.0110           0
     20543 MEMB     178      CHL1     H6       HEL1     0.150000       1.00800           0
     20544 MEMB     178      CHL1     C7       CRL2    -0.180000       12.0110           0
     20545 MEMB     178      CHL1     H7A      HGA2     0.900000E-01   1.00800           0
     20546 MEMB     178      CHL1     H7B      HGA2     0.900000E-01   1.00800           0
     20547 MEMB     178      CHL1     C8       CRL1    -0.900000E-01   12.0110           0
     20548 MEMB     178      CHL1     H8       HGA1     0.900000E-01   1.00800           0
     20549 MEMB     178      CHL1     C14      CRL1    -0.900000E-01   12.0110           0
     20550 MEMB     178      CHL1     H14      HGA1     0.900000E-01   1.00800           0
     20551 MEMB     178      CHL1     C15      CRL2    -0.180000       12.0110           0
     20552 MEMB     178      CHL1     H15A     HGA2     0.900000E-01   1.00800           0
     20553 MEMB     178      CHL1     H15B     HGA2     0.900000E-01   1.00800           0
     20554 MEMB     178      CHL1     C16      CRL2    -0.180000       12.0110           0
     20555 MEMB     178      CHL1     H16A     HGA2     0.900000E-01   1.00800           0
     20556 MEMB     178      CHL1     H16B     HGA2     0.900000E-01   1.00800           0
     20557 MEMB     178      CHL1     C17      CRL1    -0.900000E-01   12.0110           0
     20558 MEMB     178      CHL1     H17      HGA1     0.900000E-01   1.00800           0
     20559 MEMB     178      CHL1     C13      CRL1      0.00000       12.0110           0
     20560 MEMB     178      CHL1     C18      CTL3    -0.270000       12.0110           0
     20561 MEMB     178      CHL1     H18A     HAL3     0.900000E-01   1.00800           0
     20562 MEMB     178      CHL1     H18B     HAL3     0.900000E-01   1.00800           0
     20563 MEMB     178      CHL1     H18C     HAL3     0.900000E-01   1.00800           0
     20564 MEMB     178      CHL1     C12      CRL2    -0.180000       12.0110           0
     20565 MEMB     178      CHL1     H12A     HGA2     0.900000E-01   1.00800           0
     20566 MEMB     178      CHL1     H12B     HGA2     0.900000E-01   1.00800           0
     20567 MEMB     178      CHL1     C11      CRL2    -0.180000       12.0110           0
     20568 MEMB     178      CHL1     H11A     HGA2     0.900000E-01   1.00800           0
     20569 MEMB     178      CHL1     H11B     HGA2     0.900000E-01   1.00800           0
     20570 MEMB     178      CHL1     C9       CRL1    -0.900000E-01   12.0110           0
     20571 MEMB     178      CHL1     H9       HGA1     0.900000E-01   1.00800           0
     20572 MEMB     178      CHL1     C10      CRL1      0.00000       12.0110           0
     20573 MEMB     178      CHL1     C19      CTL3    -0.270000       12.0110           0
     20574 MEMB     178      CHL1     H19A     HAL3     0.900000E-01   1.00800           0
     20575 MEMB     178      CHL1     H19B     HAL3     0.900000E-01   1.00800           0
     20576 MEMB     178      CHL1     H19C     HAL3     0.900000E-01   1.00800           0
     20577 MEMB     178      CHL1     C1       CRL2    -0.180000       12.0110           0
     20578 MEMB     178      CHL1     H1A      HGA2     0.900000E-01   1.00800           0
     20579 MEMB     178      CHL1     H1B      HGA2     0.900000E-01   1.00800           0
     20580 MEMB     178      CHL1     C2       CRL2    -0.180000       12.0110           0
     20581 MEMB     178      CHL1     H2A      HGA2     0.900000E-01   1.00800           0
     20582 MEMB     178      CHL1     H2B      HGA2     0.900000E-01   1.00800           0
     20583 MEMB     178      CHL1     C20      CTL1    -0.900000E-01   12.0110           0
     20584 MEMB     178      CHL1     H20      HAL1     0.900000E-01   1.00800           0
     20585 MEMB     178      CHL1     C21      CTL3    -0.270000       12.0110           0
     20586 MEMB     178      CHL1     H21A     HAL3     0.900000E-01   1.00800           0
     20587 MEMB     178      CHL1     H21B     HAL3     0.900000E-01   1.00800           0
     20588 MEMB     178      CHL1     H21C     HAL3     0.900000E-01   1.00800           0
     20589 MEMB     178      CHL1     C22      CTL2    -0.180000       12.0110           0
     20590 MEMB     178      CHL1     H22A     HAL2     0.900000E-01   1.00800           0
     20591 MEMB     178      CHL1     H22B     HAL2     0.900000E-01   1.00800           0
     20592 MEMB     178      CHL1     C23      CTL2    -0.180000       12.0110           0
     20593 MEMB     178      CHL1     H23A     HAL2     0.900000E-01   1.00800           0
     20594 MEMB     178      CHL1     H23B     HAL2     0.900000E-01   1.00800           0
     20595 MEMB     178      CHL1     C24      CTL2    -0.180000       12.0110           0
     20596 MEMB     178      CHL1     H24A     HAL2     0.900000E-01   1.00800           0
     20597 MEMB     178      CHL1     H24B     HAL2     0.900000E-01   1.00800           0
     20598 MEMB     178      CHL1     C25      CTL1    -0.900000E-01   12.0110           0
     20599 MEMB     178      CHL1     H25      HAL1     0.900000E-01   1.00800           0
     20600 MEMB     178      CHL1     C26      CTL3    -0.270000       12.0110           0
     20601 MEMB     178      CHL1     H26A     HAL3     0.900000E-01   1.00800           0
     20602 MEMB     178      CHL1     H26B     HAL3     0.900000E-01   1.00800           0
     20603 MEMB     178      CHL1     H26C     HAL3     0.900000E-01   1.00800           0
     20604 MEMB     178      CHL1     C27      CTL3    -0.270000       12.0110           0
     20605 MEMB     178      CHL1     H27A     HAL3     0.900000E-01   1.00800           0
     20606 MEMB     178      CHL1     H27B     HAL3     0.900000E-01   1.00800           0
     20607 MEMB     178      CHL1     H27C     HAL3     0.900000E-01   1.00800           0
     20608 MEMB     179      SAPS     N        NH3L    -0.300000       14.0070           0
     20609 MEMB     179      SAPS     HN1      HCL      0.330000       1.00800           0
     20610 MEMB     179      SAPS     HN2      HCL      0.330000       1.00800           0
     20611 MEMB     179      SAPS     HN3      HCL      0.330000       1.00800           0
     20612 MEMB     179      SAPS     C12      CTL1     0.210000       12.0110           0
     20613 MEMB     179      SAPS     H12A     HBL      0.100000       1.00800           0
     20614 MEMB     179      SAPS     C13      CCL      0.340000       12.0110           0
     20615 MEMB     179      SAPS     O13A     OCL     -0.670000       15.9994           0
     20616 MEMB     179      SAPS     O13B     OCL     -0.670000       15.9994           0
     20617 MEMB     179      SAPS     C11      CTL2    -0.800000E-01   12.0110           0
     20618 MEMB     179      SAPS     H11A     HAL2     0.900000E-01   1.00800           0
     20619 MEMB     179      SAPS     H11B     HAL2     0.900000E-01   1.00800           0
     20620 MEMB     179      SAPS     P        PL        1.50000       30.9740           0
     20621 MEMB     179      SAPS     O13      O2L     -0.780000       15.9994           0
     20622 MEMB     179      SAPS     O14      O2L     -0.780000       15.9994           0
     20623 MEMB     179      SAPS     O12      OSLP    -0.570000       15.9994           0
     20624 MEMB     179      SAPS     O11      OSLP    -0.570000       15.9994           0
     20625 MEMB     179      SAPS     C1       CTL2    -0.800000E-01   12.0110           0
     20626 MEMB     179      SAPS     HA       HAL2     0.900000E-01   1.00800           0
     20627 MEMB     179      SAPS     HB       HAL2     0.900000E-01   1.00800           0
     20628 MEMB     179      SAPS     C2       CTL1     0.170000       12.0110           0
     20629 MEMB     179      SAPS     HS       HAL1     0.900000E-01   1.00800           0
     20630 MEMB     179      SAPS     O21      OSL     -0.490000       15.9994           0
     20631 MEMB     179      SAPS     C21      CL       0.900000       12.0110           0
     20632 MEMB     179      SAPS     O22      OBL     -0.630000       15.9994           0
     20633 MEMB     179      SAPS     C22      CTL2    -0.220000       12.0110           0
     20634 MEMB     179      SAPS     H2R      HAL2     0.900000E-01   1.00800           0
     20635 MEMB     179      SAPS     H2S      HAL2     0.900000E-01   1.00800           0
     20636 MEMB     179      SAPS     C3       CTL2     0.800000E-01   12.0110           0
     20637 MEMB     179      SAPS     HX       HAL2     0.900000E-01   1.00800           0
     20638 MEMB     179      SAPS     HY       HAL2     0.900000E-01   1.00800           0
     20639 MEMB     179      SAPS     O31      OSL     -0.490000       15.9994           0
     20640 MEMB     179      SAPS     C31      CL       0.900000       12.0110           0
     20641 MEMB     179      SAPS     O32      OBL     -0.630000       15.9994           0
     20642 MEMB     179      SAPS     C32      CTL2    -0.220000       12.0110           0
     20643 MEMB     179      SAPS     H2X      HAL2     0.900000E-01   1.00800           0
     20644 MEMB     179      SAPS     H2Y      HAL2     0.900000E-01   1.00800           0
     20645 MEMB     179      SAPS     C23      CTL2    -0.180000       12.0110           0
     20646 MEMB     179      SAPS     H3R      HAL2     0.900000E-01   1.00800           0
     20647 MEMB     179      SAPS     H3S      HAL2     0.900000E-01   1.00800           0
     20648 MEMB     179      SAPS     C24      CTL2    -0.180000       12.0110           0
     20649 MEMB     179      SAPS     H4R      HAL2     0.900000E-01   1.00800           0
     20650 MEMB     179      SAPS     H4S      HAL2     0.900000E-01   1.00800           0
     20651 MEMB     179      SAPS     C25      CEL1    -0.150000       12.0110           0
     20652 MEMB     179      SAPS     H5R      HEL1     0.150000       1.00800           0
     20653 MEMB     179      SAPS     C26      CEL1    -0.150000       12.0110           0
     20654 MEMB     179      SAPS     H6R      HEL1     0.150000       1.00800           0
     20655 MEMB     179      SAPS     C27      CTL2    -0.180000       12.0110           0
     20656 MEMB     179      SAPS     H7R      HAL2     0.900000E-01   1.00800           0
     20657 MEMB     179      SAPS     H7S      HAL2     0.900000E-01   1.00800           0
     20658 MEMB     179      SAPS     C28      CEL1    -0.150000       12.0110           0
     20659 MEMB     179      SAPS     H8R      HEL1     0.150000       1.00800           0
     20660 MEMB     179      SAPS     C29      CEL1    -0.150000       12.0110           0
     20661 MEMB     179      SAPS     H9R      HEL1     0.150000       1.00800           0
     20662 MEMB     179      SAPS     C210     CTL2    -0.180000       12.0110           0
     20663 MEMB     179      SAPS     H10R     HAL2     0.900000E-01   1.00800           0
     20664 MEMB     179      SAPS     H10S     HAL2     0.900000E-01   1.00800           0
     20665 MEMB     179      SAPS     C211     CEL1    -0.150000       12.0110           0
     20666 MEMB     179      SAPS     H11R     HEL1     0.150000       1.00800           0
     20667 MEMB     179      SAPS     C212     CEL1    -0.150000       12.0110           0
     20668 MEMB     179      SAPS     H12R     HEL1     0.150000       1.00800           0
     20669 MEMB     179      SAPS     C213     CTL2    -0.180000       12.0110           0
     20670 MEMB     179      SAPS     H13R     HAL2     0.900000E-01   1.00800           0
     20671 MEMB     179      SAPS     H13S     HAL2     0.900000E-01   1.00800           0
     20672 MEMB     179      SAPS     C214     CEL1    -0.150000       12.0110           0
     20673 MEMB     179      SAPS     H14R     HEL1     0.150000       1.00800           0
     20674 MEMB     179      SAPS     C215     CEL1    -0.150000       12.0110           0
     20675 MEMB     179      SAPS     H15R     HEL1     0.150000       1.00800           0
     20676 MEMB     179      SAPS     C216     CTL2    -0.180000       12.0110           0
     20677 MEMB     179      SAPS     H16R     HAL2     0.900000E-01   1.00800           0
     20678 MEMB     179      SAPS     H16S     HAL2     0.900000E-01   1.00800           0
     20679 MEMB     179      SAPS     C217     CTL2    -0.180000       12.0110           0
     20680 MEMB     179      SAPS     H17R     HAL2     0.900000E-01   1.00800           0
     20681 MEMB     179      SAPS     H17S     HAL2     0.900000E-01   1.00800           0
     20682 MEMB     179      SAPS     C218     CTL2    -0.180000       12.0110           0
     20683 MEMB     179      SAPS     H18R     HAL2     0.900000E-01   1.00800           0
     20684 MEMB     179      SAPS     H18S     HAL2     0.900000E-01   1.00800           0
     20685 MEMB     179      SAPS     C219     CTL2    -0.180000       12.0110           0
     20686 MEMB     179      SAPS     H19R     HAL2     0.900000E-01   1.00800           0
     20687 MEMB     179      SAPS     H19S     HAL2     0.900000E-01   1.00800           0
     20688 MEMB     179      SAPS     C220     CTL3    -0.270000       12.0110           0
     20689 MEMB     179      SAPS     H20R     HAL3     0.900000E-01   1.00800           0
     20690 MEMB     179      SAPS     H20S     HAL3     0.900000E-01   1.00800           0
     20691 MEMB     179      SAPS     H20T     HAL3     0.900000E-01   1.00800           0
     20692 MEMB     179      SAPS     C33      CTL2    -0.180000       12.0110           0
     20693 MEMB     179      SAPS     H3X      HAL2     0.900000E-01   1.00800           0
     20694 MEMB     179      SAPS     H3Y      HAL2     0.900000E-01   1.00800           0
     20695 MEMB     179      SAPS     C34      CTL2    -0.180000       12.0110           0
     20696 MEMB     179      SAPS     H4X      HAL2     0.900000E-01   1.00800           0
     20697 MEMB     179      SAPS     H4Y      HAL2     0.900000E-01   1.00800           0
     20698 MEMB     179      SAPS     C35      CTL2    -0.180000       12.0110           0
     20699 MEMB     179      SAPS     H5X      HAL2     0.900000E-01   1.00800           0
     20700 MEMB     179      SAPS     H5Y      HAL2     0.900000E-01   1.00800           0
     20701 MEMB     179      SAPS     C36      CTL2    -0.180000       12.0110           0
     20702 MEMB     179      SAPS     H6X      HAL2     0.900000E-01   1.00800           0
     20703 MEMB     179      SAPS     H6Y      HAL2     0.900000E-01   1.00800           0
     20704 MEMB     179      SAPS     C37      CTL2    -0.180000       12.0110           0
     20705 MEMB     179      SAPS     H7X      HAL2     0.900000E-01   1.00800           0
     20706 MEMB     179      SAPS     H7Y      HAL2     0.900000E-01   1.00800           0
     20707 MEMB     179      SAPS     C38      CTL2    -0.180000       12.0110           0
     20708 MEMB     179      SAPS     H8X      HAL2     0.900000E-01   1.00800           0
     20709 MEMB     179      SAPS     H8Y      HAL2     0.900000E-01   1.00800           0
     20710 MEMB     179      SAPS     C39      CTL2    -0.180000       12.0110           0
     20711 MEMB     179      SAPS     H9X      HAL2     0.900000E-01   1.00800           0
     20712 MEMB     179      SAPS     H9Y      HAL2     0.900000E-01   1.00800           0
     20713 MEMB     179      SAPS     C310     CTL2    -0.180000       12.0110           0
     20714 MEMB     179      SAPS     H10X     HAL2     0.900000E-01   1.00800           0
     20715 MEMB     179      SAPS     H10Y     HAL2     0.900000E-01   1.00800           0
     20716 MEMB     179      SAPS     C311     CTL2    -0.180000       12.0110           0
     20717 MEMB     179      SAPS     H11X     HAL2     0.900000E-01   1.00800           0
     20718 MEMB     179      SAPS     H11Y     HAL2     0.900000E-01   1.00800           0
     20719 MEMB     179      SAPS     C312     CTL2    -0.180000       12.0110           0
     20720 MEMB     179      SAPS     H12X     HAL2     0.900000E-01   1.00800           0
     20721 MEMB     179      SAPS     H12Y     HAL2     0.900000E-01   1.00800           0
     20722 MEMB     179      SAPS     C313     CTL2    -0.180000       12.0110           0
     20723 MEMB     179      SAPS     H13X     HAL2     0.900000E-01   1.00800           0
     20724 MEMB     179      SAPS     H13Y     HAL2     0.900000E-01   1.00800           0
     20725 MEMB     179      SAPS     C314     CTL2    -0.180000       12.0110           0
     20726 MEMB     179      SAPS     H14X     HAL2     0.900000E-01   1.00800           0
     20727 MEMB     179      SAPS     H14Y     HAL2     0.900000E-01   1.00800           0
     20728 MEMB     179      SAPS     C315     CTL2    -0.180000       12.0110           0
     20729 MEMB     179      SAPS     H15X     HAL2     0.900000E-01   1.00800           0
     20730 MEMB     179      SAPS     H15Y     HAL2     0.900000E-01   1.00800           0
     20731 MEMB     179      SAPS     C316     CTL2    -0.180000       12.0110           0
     20732 MEMB     179      SAPS     H16X     HAL2     0.900000E-01   1.00800           0
     20733 MEMB     179      SAPS     H16Y     HAL2     0.900000E-01   1.00800           0
     20734 MEMB     179      SAPS     C317     CTL2    -0.180000       12.0110           0
     20735 MEMB     179      SAPS     H17X     HAL2     0.900000E-01   1.00800           0
     20736 MEMB     179      SAPS     H17Y     HAL2     0.900000E-01   1.00800           0
     20737 MEMB     179      SAPS     C318     CTL3    -0.270000       12.0110           0
     20738 MEMB     179      SAPS     H18X     HAL3     0.900000E-01   1.00800           0
     20739 MEMB     179      SAPS     H18Y     HAL3     0.900000E-01   1.00800           0
     20740 MEMB     179      SAPS     H18Z     HAL3     0.900000E-01   1.00800           0
     20741 MEMB     180      SOPE     N        NH3L    -0.300000       14.0070           0
     20742 MEMB     180      SOPE     HN1      HCL      0.330000       1.00800           0
     20743 MEMB     180      SOPE     HN2      HCL      0.330000       1.00800           0
     20744 MEMB     180      SOPE     HN3      HCL      0.330000       1.00800           0
     20745 MEMB     180      SOPE     C12      CTL2     0.130000       12.0110           0
     20746 MEMB     180      SOPE     H12A     HAL2     0.900000E-01   1.00800           0
     20747 MEMB     180      SOPE     H12B     HAL2     0.900000E-01   1.00800           0
     20748 MEMB     180      SOPE     C11      CTL2    -0.800000E-01   12.0110           0
     20749 MEMB     180      SOPE     H11A     HAL2     0.900000E-01   1.00800           0
     20750 MEMB     180      SOPE     H11B     HAL2     0.900000E-01   1.00800           0
     20751 MEMB     180      SOPE     P        PL        1.50000       30.9740           0
     20752 MEMB     180      SOPE     O13      O2L     -0.780000       15.9994           0
     20753 MEMB     180      SOPE     O14      O2L     -0.780000       15.9994           0
     20754 MEMB     180      SOPE     O12      OSLP    -0.570000       15.9994           0
     20755 MEMB     180      SOPE     O11      OSLP    -0.570000       15.9994           0
     20756 MEMB     180      SOPE     C1       CTL2    -0.800000E-01   12.0110           0
     20757 MEMB     180      SOPE     HA       HAL2     0.900000E-01   1.00800           0
     20758 MEMB     180      SOPE     HB       HAL2     0.900000E-01   1.00800           0
     20759 MEMB     180      SOPE     C2       CTL1     0.170000       12.0110           0
     20760 MEMB     180      SOPE     HS       HAL1     0.900000E-01   1.00800           0
     20761 MEMB     180      SOPE     O21      OSL     -0.490000       15.9994           0
     20762 MEMB     180      SOPE     C21      CL       0.900000       12.0110           0
     20763 MEMB     180      SOPE     O22      OBL     -0.630000       15.9994           0
     20764 MEMB     180      SOPE     C22      CTL2    -0.220000       12.0110           0
     20765 MEMB     180      SOPE     H2R      HAL2     0.900000E-01   1.00800           0
     20766 MEMB     180      SOPE     H2S      HAL2     0.900000E-01   1.00800           0
     20767 MEMB     180      SOPE     C3       CTL2     0.800000E-01   12.0110           0
     20768 MEMB     180      SOPE     HX       HAL2     0.900000E-01   1.00800           0
     20769 MEMB     180      SOPE     HY       HAL2     0.900000E-01   1.00800           0
     20770 MEMB     180      SOPE     O31      OSL     -0.490000       15.9994           0
     20771 MEMB     180      SOPE     C31      CL       0.900000       12.0110           0
     20772 MEMB     180      SOPE     O32      OBL     -0.630000       15.9994           0
     20773 MEMB     180      SOPE     C32      CTL2    -0.220000       12.0110           0
     20774 MEMB     180      SOPE     H2X      HAL2     0.900000E-01   1.00800           0
     20775 MEMB     180      SOPE     H2Y      HAL2     0.900000E-01   1.00800           0
     20776 MEMB     180      SOPE     C23      CTL2    -0.180000       12.0110           0
     20777 MEMB     180      SOPE     H3R      HAL2     0.900000E-01   1.00800           0
     20778 MEMB     180      SOPE     H3S      HAL2     0.900000E-01   1.00800           0
     20779 MEMB     180      SOPE     C24      CTL2    -0.180000       12.0110           0
     20780 MEMB     180      SOPE     H4R      HAL2     0.900000E-01   1.00800           0
     20781 MEMB     180      SOPE     H4S      HAL2     0.900000E-01   1.00800           0
     20782 MEMB     180      SOPE     C25      CTL2    -0.180000       12.0110           0
     20783 MEMB     180      SOPE     H5R      HAL2     0.900000E-01   1.00800           0
     20784 MEMB     180      SOPE     H5S      HAL2     0.900000E-01   1.00800           0
     20785 MEMB     180      SOPE     C26      CTL2    -0.180000       12.0110           0
     20786 MEMB     180      SOPE     H6R      HAL2     0.900000E-01   1.00800           0
     20787 MEMB     180      SOPE     H6S      HAL2     0.900000E-01   1.00800           0
     20788 MEMB     180      SOPE     C27      CTL2    -0.180000       12.0110           0
     20789 MEMB     180      SOPE     H7R      HAL2     0.900000E-01   1.00800           0
     20790 MEMB     180      SOPE     H7S      HAL2     0.900000E-01   1.00800           0
     20791 MEMB     180      SOPE     C28      CTL2    -0.180000       12.0110           0
     20792 MEMB     180      SOPE     H8R      HAL2     0.900000E-01   1.00800           0
     20793 MEMB     180      SOPE     H8S      HAL2     0.900000E-01   1.00800           0
     20794 MEMB     180      SOPE     C29      CEL1    -0.150000       12.0110           0
     20795 MEMB     180      SOPE     H91      HEL1     0.150000       1.00800           0
     20796 MEMB     180      SOPE     C210     CEL1    -0.150000       12.0110           0
     20797 MEMB     180      SOPE     H101     HEL1     0.150000       1.00800           0
     20798 MEMB     180      SOPE     C211     CTL2    -0.180000       12.0110           0
     20799 MEMB     180      SOPE     H11R     HAL2     0.900000E-01   1.00800           0
     20800 MEMB     180      SOPE     H11S     HAL2     0.900000E-01   1.00800           0
     20801 MEMB     180      SOPE     C212     CTL2    -0.180000       12.0110           0
     20802 MEMB     180      SOPE     H12R     HAL2     0.900000E-01   1.00800           0
     20803 MEMB     180      SOPE     H12S     HAL2     0.900000E-01   1.00800           0
     20804 MEMB     180      SOPE     C213     CTL2    -0.180000       12.0110           0
     20805 MEMB     180      SOPE     H13R     HAL2     0.900000E-01   1.00800           0
     20806 MEMB     180      SOPE     H13S     HAL2     0.900000E-01   1.00800           0
     20807 MEMB     180      SOPE     C214     CTL2    -0.180000       12.0110           0
     20808 MEMB     180      SOPE     H14R     HAL2     0.900000E-01   1.00800           0
     20809 MEMB     180      SOPE     H14S     HAL2     0.900000E-01   1.00800           0
     20810 MEMB     180      SOPE     C215     CTL2    -0.180000       12.0110           0
     20811 MEMB     180      SOPE     H15R     HAL2     0.900000E-01   1.00800           0
     20812 MEMB     180      SOPE     H15S     HAL2     0.900000E-01   1.00800           0
     20813 MEMB     180      SOPE     C216     CTL2    -0.180000       12.0110           0
     20814 MEMB     180      SOPE     H16R     HAL2     0.900000E-01   1.00800           0
     20815 MEMB     180      SOPE     H16S     HAL2     0.900000E-01   1.00800           0
     20816 MEMB     180      SOPE     C217     CTL2    -0.180000       12.0110           0
     20817 MEMB     180      SOPE     H17R     HAL2     0.900000E-01   1.00800           0
     20818 MEMB     180      SOPE     H17S     HAL2     0.900000E-01   1.00800           0
     20819 MEMB     180      SOPE     C218     CTL3    -0.270000       12.0110           0
     20820 MEMB     180      SOPE     H18R     HAL3     0.900000E-01   1.00800           0
     20821 MEMB     180      SOPE     H18S     HAL3     0.900000E-01   1.00800           0
     20822 MEMB     180      SOPE     H18T     HAL3     0.900000E-01   1.00800           0
     20823 MEMB     180      SOPE     C33      CTL2    -0.180000       12.0110           0
     20824 MEMB     180      SOPE     H3X      HAL2     0.900000E-01   1.00800           0
     20825 MEMB     180      SOPE     H3Y      HAL2     0.900000E-01   1.00800           0
     20826 MEMB     180      SOPE     C34      CTL2    -0.180000       12.0110           0
     20827 MEMB     180      SOPE     H4X      HAL2     0.900000E-01   1.00800           0
     20828 MEMB     180      SOPE     H4Y      HAL2     0.900000E-01   1.00800           0
     20829 MEMB     180      SOPE     C35      CTL2    -0.180000       12.0110           0
     20830 MEMB     180      SOPE     H5X      HAL2     0.900000E-01   1.00800           0
     20831 MEMB     180      SOPE     H5Y      HAL2     0.900000E-01   1.00800           0
     20832 MEMB     180      SOPE     C36      CTL2    -0.180000       12.0110           0
     20833 MEMB     180      SOPE     H6X      HAL2     0.900000E-01   1.00800           0
     20834 MEMB     180      SOPE     H6Y      HAL2     0.900000E-01   1.00800           0
     20835 MEMB     180      SOPE     C37      CTL2    -0.180000       12.0110           0
     20836 MEMB     180      SOPE     H7X      HAL2     0.900000E-01   1.00800           0
     20837 MEMB     180      SOPE     H7Y      HAL2     0.900000E-01   1.00800           0
     20838 MEMB     180      SOPE     C38      CTL2    -0.180000       12.0110           0
     20839 MEMB     180      SOPE     H8X      HAL2     0.900000E-01   1.00800           0
     20840 MEMB     180      SOPE     H8Y      HAL2     0.900000E-01   1.00800           0
     20841 MEMB     180      SOPE     C39      CTL2    -0.180000       12.0110           0
     20842 MEMB     180      SOPE     H9X      HAL2     0.900000E-01   1.00800           0
     20843 MEMB     180      SOPE     H9Y      HAL2     0.900000E-01   1.00800           0
     20844 MEMB     180      SOPE     C310     CTL2    -0.180000       12.0110           0
     20845 MEMB     180      SOPE     H10X     HAL2     0.900000E-01   1.00800           0
     20846 MEMB     180      SOPE     H10Y     HAL2     0.900000E-01   1.00800           0
     20847 MEMB     180      SOPE     C311     CTL2    -0.180000       12.0110           0
     20848 MEMB     180      SOPE     H11X     HAL2     0.900000E-01   1.00800           0
     20849 MEMB     180      SOPE     H11Y     HAL2     0.900000E-01   1.00800           0
     20850 MEMB     180      SOPE     C312     CTL2    -0.180000       12.0110           0
     20851 MEMB     180      SOPE     H12X     HAL2     0.900000E-01   1.00800           0
     20852 MEMB     180      SOPE     H12Y     HAL2     0.900000E-01   1.00800           0
     20853 MEMB     180      SOPE     C313     CTL2    -0.180000       12.0110           0
     20854 MEMB     180      SOPE     H13X     HAL2     0.900000E-01   1.00800           0
     20855 MEMB     180      SOPE     H13Y     HAL2     0.900000E-01   1.00800           0
     20856 MEMB     180      SOPE     C314     CTL2    -0.180000       12.0110           0
     20857 MEMB     180      SOPE     H14X     HAL2     0.900000E-01   1.00800           0
     20858 MEMB     180      SOPE     H14Y     HAL2     0.900000E-01   1.00800           0
     20859 MEMB     180      SOPE     C315     CTL2    -0.180000       12.0110           0
     20860 MEMB     180      SOPE     H15X     HAL2     0.900000E-01   1.00800           0
     20861 MEMB     180      SOPE     H15Y     HAL2     0.900000E-01   1.00800           0
     20862 MEMB     180      SOPE     C316     CTL2    -0.180000       12.0110           0
     20863 MEMB     180      SOPE     H16X     HAL2     0.900000E-01   1.00800           0
     20864 MEMB     180      SOPE     H16Y     HAL2     0.900000E-01   1.00800           0
     20865 MEMB     180      SOPE     C317     CTL2    -0.180000       12.0110           0
     20866 MEMB     180      SOPE     H17X     HAL2     0.900000E-01   1.00800           0
     20867 MEMB     180      SOPE     H17Y     HAL2     0.900000E-01   1.00800           0
     20868 MEMB     180      SOPE     C318     CTL3    -0.270000       12.0110           0
     20869 MEMB     180      SOPE     H18X     HAL3     0.900000E-01   1.00800           0
     20870 MEMB     180      SOPE     H18Y     HAL3     0.900000E-01   1.00800           0
     20871 MEMB     180      SOPE     H18Z     HAL3     0.900000E-01   1.00800           0
     20872 MEMB     181      SAPC     N        NTL     -0.600000       14.0070           0
     20873 MEMB     181      SAPC     C12      CTL2    -0.100000       12.0110           0
     20874 MEMB     181      SAPC     H12A     HL       0.250000       1.00800           0
     20875 MEMB     181      SAPC     H12B     HL       0.250000       1.00800           0
     20876 MEMB     181      SAPC     C13      CTL5    -0.350000       12.0110           0
     20877 MEMB     181      SAPC     H13A     HL       0.250000       1.00800           0
     20878 MEMB     181      SAPC     H13B     HL       0.250000       1.00800           0
     20879 MEMB     181      SAPC     H13C     HL       0.250000       1.00800           0
     20880 MEMB     181      SAPC     C14      CTL5    -0.350000       12.0110           0
     20881 MEMB     181      SAPC     H14A     HL       0.250000       1.00800           0
     20882 MEMB     181      SAPC     H14B     HL       0.250000       1.00800           0
     20883 MEMB     181      SAPC     H14C     HL       0.250000       1.00800           0
     20884 MEMB     181      SAPC     C15      CTL5    -0.350000       12.0110           0
     20885 MEMB     181      SAPC     H15A     HL       0.250000       1.00800           0
     20886 MEMB     181      SAPC     H15B     HL       0.250000       1.00800           0
     20887 MEMB     181      SAPC     H15C     HL       0.250000       1.00800           0
     20888 MEMB     181      SAPC     C11      CTL2    -0.800000E-01   12.0110           0
     20889 MEMB     181      SAPC     H11A     HAL2     0.900000E-01   1.00800           0
     20890 MEMB     181      SAPC     H11B     HAL2     0.900000E-01   1.00800           0
     20891 MEMB     181      SAPC     P        PL        1.50000       30.9740           0
     20892 MEMB     181      SAPC     O13      O2L     -0.780000       15.9994           0
     20893 MEMB     181      SAPC     O14      O2L     -0.780000       15.9994           0
     20894 MEMB     181      SAPC     O12      OSLP    -0.570000       15.9994           0
     20895 MEMB     181      SAPC     O11      OSLP    -0.570000       15.9994           0
     20896 MEMB     181      SAPC     C1       CTL2    -0.800000E-01   12.0110           0
     20897 MEMB     181      SAPC     HA       HAL2     0.900000E-01   1.00800           0
     20898 MEMB     181      SAPC     HB       HAL2     0.900000E-01   1.00800           0
     20899 MEMB     181      SAPC     C2       CTL1     0.170000       12.0110           0
     20900 MEMB     181      SAPC     HS       HAL1     0.900000E-01   1.00800           0
     20901 MEMB     181      SAPC     O21      OSL     -0.490000       15.9994           0
     20902 MEMB     181      SAPC     C21      CL       0.900000       12.0110           0
     20903 MEMB     181      SAPC     O22      OBL     -0.630000       15.9994           0
     20904 MEMB     181      SAPC     C22      CTL2    -0.220000       12.0110           0
     20905 MEMB     181      SAPC     H2R      HAL2     0.900000E-01   1.00800           0
     20906 MEMB     181      SAPC     H2S      HAL2     0.900000E-01   1.00800           0
     20907 MEMB     181      SAPC     C3       CTL2     0.800000E-01   12.0110           0
     20908 MEMB     181      SAPC     HX       HAL2     0.900000E-01   1.00800           0
     20909 MEMB     181      SAPC     HY       HAL2     0.900000E-01   1.00800           0
     20910 MEMB     181      SAPC     O31      OSL     -0.490000       15.9994           0
     20911 MEMB     181      SAPC     C31      CL       0.900000       12.0110           0
     20912 MEMB     181      SAPC     O32      OBL     -0.630000       15.9994           0
     20913 MEMB     181      SAPC     C32      CTL2    -0.220000       12.0110           0
     20914 MEMB     181      SAPC     H2X      HAL2     0.900000E-01   1.00800           0
     20915 MEMB     181      SAPC     H2Y      HAL2     0.900000E-01   1.00800           0
     20916 MEMB     181      SAPC     C23      CTL2    -0.180000       12.0110           0
     20917 MEMB     181      SAPC     H3R      HAL2     0.900000E-01   1.00800           0
     20918 MEMB     181      SAPC     H3S      HAL2     0.900000E-01   1.00800           0
     20919 MEMB     181      SAPC     C24      CTL2    -0.180000       12.0110           0
     20920 MEMB     181      SAPC     H4R      HAL2     0.900000E-01   1.00800           0
     20921 MEMB     181      SAPC     H4S      HAL2     0.900000E-01   1.00800           0
     20922 MEMB     181      SAPC     C25      CEL1    -0.150000       12.0110           0
     20923 MEMB     181      SAPC     H5R      HEL1     0.150000       1.00800           0
     20924 MEMB     181      SAPC     C26      CEL1    -0.150000       12.0110           0
     20925 MEMB     181      SAPC     H6R      HEL1     0.150000       1.00800           0
     20926 MEMB     181      SAPC     C27      CTL2    -0.180000       12.0110           0
     20927 MEMB     181      SAPC     H7R      HAL2     0.900000E-01   1.00800           0
     20928 MEMB     181      SAPC     H7S      HAL2     0.900000E-01   1.00800           0
     20929 MEMB     181      SAPC     C28      CEL1    -0.150000       12.0110           0
     20930 MEMB     181      SAPC     H8R      HEL1     0.150000       1.00800           0
     20931 MEMB     181      SAPC     C29      CEL1    -0.150000       12.0110           0
     20932 MEMB     181      SAPC     H9R      HEL1     0.150000       1.00800           0
     20933 MEMB     181      SAPC     C210     CTL2    -0.180000       12.0110           0
     20934 MEMB     181      SAPC     H10R     HAL2     0.900000E-01   1.00800           0
     20935 MEMB     181      SAPC     H10S     HAL2     0.900000E-01   1.00800           0
     20936 MEMB     181      SAPC     C211     CEL1    -0.150000       12.0110           0
     20937 MEMB     181      SAPC     H11R     HEL1     0.150000       1.00800           0
     20938 MEMB     181      SAPC     C212     CEL1    -0.150000       12.0110           0
     20939 MEMB     181      SAPC     H12R     HEL1     0.150000       1.00800           0
     20940 MEMB     181      SAPC     C213     CTL2    -0.180000       12.0110           0
     20941 MEMB     181      SAPC     H13R     HAL2     0.900000E-01   1.00800           0
     20942 MEMB     181      SAPC     H13S     HAL2     0.900000E-01   1.00800           0
     20943 MEMB     181      SAPC     C214     CEL1    -0.150000       12.0110           0
     20944 MEMB     181      SAPC     H14R     HEL1     0.150000       1.00800           0
     20945 MEMB     181      SAPC     C215     CEL1    -0.150000       12.0110           0
     20946 MEMB     181      SAPC     H15R     HEL1     0.150000       1.00800           0
     20947 MEMB     181      SAPC     C216     CTL2    -0.180000       12.0110           0
     20948 MEMB     181      SAPC     H16R     HAL2     0.900000E-01   1.00800           0
     20949 MEMB     181      SAPC     H16S     HAL2     0.900000E-01   1.00800           0
     20950 MEMB     181      SAPC     C217     CTL2    -0.180000       12.0110           0
     20951 MEMB     181      SAPC     H17R     HAL2     0.900000E-01   1.00800           0
     20952 MEMB     181      SAPC     H17S     HAL2     0.900000E-01   1.00800           0
     20953 MEMB     181      SAPC     C218     CTL2    -0.270000       12.0110           0
     20954 MEMB     181      SAPC     H18R     HAL2     0.900000E-01   1.00800           0
     20955 MEMB     181      SAPC     H18S     HAL2     0.900000E-01   1.00800           0
     20956 MEMB     181      SAPC     C219     CTL2    -0.180000       12.0110           0
     20957 MEMB     181      SAPC     H19R     HAL2     0.900000E-01   1.00800           0
     20958 MEMB     181      SAPC     H19S     HAL2     0.900000E-01   1.00800           0
     20959 MEMB     181      SAPC     C220     CTL3    -0.180000       12.0110           0
     20960 MEMB     181      SAPC     H20R     HAL3     0.900000E-01   1.00800           0
     20961 MEMB     181      SAPC     H20S     HAL3     0.900000E-01   1.00800           0
     20962 MEMB     181      SAPC     H20T     HAL3     0.900000E-01   1.00800           0
     20963 MEMB     181      SAPC     C33      CTL2    -0.180000       12.0110           0
     20964 MEMB     181      SAPC     H3X      HAL2     0.900000E-01   1.00800           0
     20965 MEMB     181      SAPC     H3Y      HAL2     0.900000E-01   1.00800           0
     20966 MEMB     181      SAPC     C34      CTL2    -0.180000       12.0110           0
     20967 MEMB     181      SAPC     H4X      HAL2     0.900000E-01   1.00800           0
     20968 MEMB     181      SAPC     H4Y      HAL2     0.900000E-01   1.00800           0
     20969 MEMB     181      SAPC     C35      CTL2    -0.180000       12.0110           0
     20970 MEMB     181      SAPC     H5X      HAL2     0.900000E-01   1.00800           0
     20971 MEMB     181      SAPC     H5Y      HAL2     0.900000E-01   1.00800           0
     20972 MEMB     181      SAPC     C36      CTL2    -0.180000       12.0110           0
     20973 MEMB     181      SAPC     H6X      HAL2     0.900000E-01   1.00800           0
     20974 MEMB     181      SAPC     H6Y      HAL2     0.900000E-01   1.00800           0
     20975 MEMB     181      SAPC     C37      CTL2    -0.180000       12.0110           0
     20976 MEMB     181      SAPC     H7X      HAL2     0.900000E-01   1.00800           0
     20977 MEMB     181      SAPC     H7Y      HAL2     0.900000E-01   1.00800           0
     20978 MEMB     181      SAPC     C38      CTL2    -0.180000       12.0110           0
     20979 MEMB     181      SAPC     H8X      HAL2     0.900000E-01   1.00800           0
     20980 MEMB     181      SAPC     H8Y      HAL2     0.900000E-01   1.00800           0
     20981 MEMB     181      SAPC     C39      CTL2    -0.180000       12.0110           0
     20982 MEMB     181      SAPC     H9X      HAL2     0.900000E-01   1.00800           0
     20983 MEMB     181      SAPC     H9Y      HAL2     0.900000E-01   1.00800           0
     20984 MEMB     181      SAPC     C310     CTL2    -0.180000       12.0110           0
     20985 MEMB     181      SAPC     H10X     HAL2     0.900000E-01   1.00800           0
     20986 MEMB     181      SAPC     H10Y     HAL2     0.900000E-01   1.00800           0
     20987 MEMB     181      SAPC     C311     CTL2    -0.180000       12.0110           0
     20988 MEMB     181      SAPC     H11X     HAL2     0.900000E-01   1.00800           0
     20989 MEMB     181      SAPC     H11Y     HAL2     0.900000E-01   1.00800           0
     20990 MEMB     181      SAPC     C312     CTL2    -0.180000       12.0110           0
     20991 MEMB     181      SAPC     H12X     HAL2     0.900000E-01   1.00800           0
     20992 MEMB     181      SAPC     H12Y     HAL2     0.900000E-01   1.00800           0
     20993 MEMB     181      SAPC     C313     CTL2    -0.180000       12.0110           0
     20994 MEMB     181      SAPC     H13X     HAL2     0.900000E-01   1.00800           0
     20995 MEMB     181      SAPC     H13Y     HAL2     0.900000E-01   1.00800           0
     20996 MEMB     181      SAPC     C314     CTL2    -0.180000       12.0110           0
     20997 MEMB     181      SAPC     H14X     HAL2     0.900000E-01   1.00800           0
     20998 MEMB     181      SAPC     H14Y     HAL2     0.900000E-01   1.00800           0
     20999 MEMB     181      SAPC     C315     CTL2    -0.180000       12.0110           0
     21000 MEMB     181      SAPC     H15X     HAL2     0.900000E-01   1.00800           0
     21001 MEMB     181      SAPC     H15Y     HAL2     0.900000E-01   1.00800           0
     21002 MEMB     181      SAPC     C316     CTL2    -0.180000       12.0110           0
     21003 MEMB     181      SAPC     H16X     HAL2     0.900000E-01   1.00800           0
     21004 MEMB     181      SAPC     H16Y     HAL2     0.900000E-01   1.00800           0
     21005 MEMB     181      SAPC     C317     CTL2    -0.180000       12.0110           0
     21006 MEMB     181      SAPC     H17X     HAL2     0.900000E-01   1.00800           0
     21007 MEMB     181      SAPC     H17Y     HAL2     0.900000E-01   1.00800           0
     21008 MEMB     181      SAPC     C318     CTL3    -0.270000       12.0110           0
     21009 MEMB     181      SAPC     H18X     HAL3     0.900000E-01   1.00800           0
     21010 MEMB     181      SAPC     H18Y     HAL3     0.900000E-01   1.00800           0
     21011 MEMB     181      SAPC     H18Z     HAL3     0.900000E-01   1.00800           0
     21012 MEMB     182      CHL1     C3       CRL1     0.140000       12.0110           0
     21013 MEMB     182      CHL1     H3       HGA1     0.900000E-01   1.00800           0
     21014 MEMB     182      CHL1     O3       OHL     -0.660000       15.9994           0
     21015 MEMB     182      CHL1     H3'      HOL      0.430000       1.00800           0
     21016 MEMB     182      CHL1     C4       CRL2    -0.180000       12.0110           0
     21017 MEMB     182      CHL1     H4A      HGA2     0.900000E-01   1.00800           0
     21018 MEMB     182      CHL1     H4B      HGA2     0.900000E-01   1.00800           0
     21019 MEMB     182      CHL1     C5       CEL1      0.00000       12.0110           0
     21020 MEMB     182      CHL1     C6       CEL1    -0.150000       12.0110           0
     21021 MEMB     182      CHL1     H6       HEL1     0.150000       1.00800           0
     21022 MEMB     182      CHL1     C7       CRL2    -0.180000       12.0110           0
     21023 MEMB     182      CHL1     H7A      HGA2     0.900000E-01   1.00800           0
     21024 MEMB     182      CHL1     H7B      HGA2     0.900000E-01   1.00800           0
     21025 MEMB     182      CHL1     C8       CRL1    -0.900000E-01   12.0110           0
     21026 MEMB     182      CHL1     H8       HGA1     0.900000E-01   1.00800           0
     21027 MEMB     182      CHL1     C14      CRL1    -0.900000E-01   12.0110           0
     21028 MEMB     182      CHL1     H14      HGA1     0.900000E-01   1.00800           0
     21029 MEMB     182      CHL1     C15      CRL2    -0.180000       12.0110           0
     21030 MEMB     182      CHL1     H15A     HGA2     0.900000E-01   1.00800           0
     21031 MEMB     182      CHL1     H15B     HGA2     0.900000E-01   1.00800           0
     21032 MEMB     182      CHL1     C16      CRL2    -0.180000       12.0110           0
     21033 MEMB     182      CHL1     H16A     HGA2     0.900000E-01   1.00800           0
     21034 MEMB     182      CHL1     H16B     HGA2     0.900000E-01   1.00800           0
     21035 MEMB     182      CHL1     C17      CRL1    -0.900000E-01   12.0110           0
     21036 MEMB     182      CHL1     H17      HGA1     0.900000E-01   1.00800           0
     21037 MEMB     182      CHL1     C13      CRL1      0.00000       12.0110           0
     21038 MEMB     182      CHL1     C18      CTL3    -0.270000       12.0110           0
     21039 MEMB     182      CHL1     H18A     HAL3     0.900000E-01   1.00800           0
     21040 MEMB     182      CHL1     H18B     HAL3     0.900000E-01   1.00800           0
     21041 MEMB     182      CHL1     H18C     HAL3     0.900000E-01   1.00800           0
     21042 MEMB     182      CHL1     C12      CRL2    -0.180000       12.0110           0
     21043 MEMB     182      CHL1     H12A     HGA2     0.900000E-01   1.00800           0
     21044 MEMB     182      CHL1     H12B     HGA2     0.900000E-01   1.00800           0
     21045 MEMB     182      CHL1     C11      CRL2    -0.180000       12.0110           0
     21046 MEMB     182      CHL1     H11A     HGA2     0.900000E-01   1.00800           0
     21047 MEMB     182      CHL1     H11B     HGA2     0.900000E-01   1.00800           0
     21048 MEMB     182      CHL1     C9       CRL1    -0.900000E-01   12.0110           0
     21049 MEMB     182      CHL1     H9       HGA1     0.900000E-01   1.00800           0
     21050 MEMB     182      CHL1     C10      CRL1      0.00000       12.0110           0
     21051 MEMB     182      CHL1     C19      CTL3    -0.270000       12.0110           0
     21052 MEMB     182      CHL1     H19A     HAL3     0.900000E-01   1.00800           0
     21053 MEMB     182      CHL1     H19B     HAL3     0.900000E-01   1.00800           0
     21054 MEMB     182      CHL1     H19C     HAL3     0.900000E-01   1.00800           0
     21055 MEMB     182      CHL1     C1       CRL2    -0.180000       12.0110           0
     21056 MEMB     182      CHL1     H1A      HGA2     0.900000E-01   1.00800           0
     21057 MEMB     182      CHL1     H1B      HGA2     0.900000E-01   1.00800           0
     21058 MEMB     182      CHL1     C2       CRL2    -0.180000       12.0110           0
     21059 MEMB     182      CHL1     H2A      HGA2     0.900000E-01   1.00800           0
     21060 MEMB     182      CHL1     H2B      HGA2     0.900000E-01   1.00800           0
     21061 MEMB     182      CHL1     C20      CTL1    -0.900000E-01   12.0110           0
     21062 MEMB     182      CHL1     H20      HAL1     0.900000E-01   1.00800           0
     21063 MEMB     182      CHL1     C21      CTL3    -0.270000       12.0110           0
     21064 MEMB     182      CHL1     H21A     HAL3     0.900000E-01   1.00800           0
     21065 MEMB     182      CHL1     H21B     HAL3     0.900000E-01   1.00800           0
     21066 MEMB     182      CHL1     H21C     HAL3     0.900000E-01   1.00800           0
     21067 MEMB     182      CHL1     C22      CTL2    -0.180000       12.0110           0
     21068 MEMB     182      CHL1     H22A     HAL2     0.900000E-01   1.00800           0
     21069 MEMB     182      CHL1     H22B     HAL2     0.900000E-01   1.00800           0
     21070 MEMB     182      CHL1     C23      CTL2    -0.180000       12.0110           0
     21071 MEMB     182      CHL1     H23A     HAL2     0.900000E-01   1.00800           0
     21072 MEMB     182      CHL1     H23B     HAL2     0.900000E-01   1.00800           0
     21073 MEMB     182      CHL1     C24      CTL2    -0.180000       12.0110           0
     21074 MEMB     182      CHL1     H24A     HAL2     0.900000E-01   1.00800           0
     21075 MEMB     182      CHL1     H24B     HAL2     0.900000E-01   1.00800           0
     21076 MEMB     182      CHL1     C25      CTL1    -0.900000E-01   12.0110           0
     21077 MEMB     182      CHL1     H25      HAL1     0.900000E-01   1.00800           0
     21078 MEMB     182      CHL1     C26      CTL3    -0.270000       12.0110           0
     21079 MEMB     182      CHL1     H26A     HAL3     0.900000E-01   1.00800           0
     21080 MEMB     182      CHL1     H26B     HAL3     0.900000E-01   1.00800           0
     21081 MEMB     182      CHL1     H26C     HAL3     0.900000E-01   1.00800           0
     21082 MEMB     182      CHL1     C27      CTL3    -0.270000       12.0110           0
     21083 MEMB     182      CHL1     H27A     HAL3     0.900000E-01   1.00800           0
     21084 MEMB     182      CHL1     H27B     HAL3     0.900000E-01   1.00800           0
     21085 MEMB     182      CHL1     H27C     HAL3     0.900000E-01   1.00800           0
     21086 MEMB     183      SAPS     N        NH3L    -0.300000       14.0070           0
     21087 MEMB     183      SAPS     HN1      HCL      0.330000       1.00800           0
     21088 MEMB     183      SAPS     HN2      HCL      0.330000       1.00800           0
     21089 MEMB     183      SAPS     HN3      HCL      0.330000       1.00800           0
     21090 MEMB     183      SAPS     C12      CTL1     0.210000       12.0110           0
     21091 MEMB     183      SAPS     H12A     HBL      0.100000       1.00800           0
     21092 MEMB     183      SAPS     C13      CCL      0.340000       12.0110           0
     21093 MEMB     183      SAPS     O13A     OCL     -0.670000       15.9994           0
     21094 MEMB     183      SAPS     O13B     OCL     -0.670000       15.9994           0
     21095 MEMB     183      SAPS     C11      CTL2    -0.800000E-01   12.0110           0
     21096 MEMB     183      SAPS     H11A     HAL2     0.900000E-01   1.00800           0
     21097 MEMB     183      SAPS     H11B     HAL2     0.900000E-01   1.00800           0
     21098 MEMB     183      SAPS     P        PL        1.50000       30.9740           0
     21099 MEMB     183      SAPS     O13      O2L     -0.780000       15.9994           0
     21100 MEMB     183      SAPS     O14      O2L     -0.780000       15.9994           0
     21101 MEMB     183      SAPS     O12      OSLP    -0.570000       15.9994           0
     21102 MEMB     183      SAPS     O11      OSLP    -0.570000       15.9994           0
     21103 MEMB     183      SAPS     C1       CTL2    -0.800000E-01   12.0110           0
     21104 MEMB     183      SAPS     HA       HAL2     0.900000E-01   1.00800           0
     21105 MEMB     183      SAPS     HB       HAL2     0.900000E-01   1.00800           0
     21106 MEMB     183      SAPS     C2       CTL1     0.170000       12.0110           0
     21107 MEMB     183      SAPS     HS       HAL1     0.900000E-01   1.00800           0
     21108 MEMB     183      SAPS     O21      OSL     -0.490000       15.9994           0
     21109 MEMB     183      SAPS     C21      CL       0.900000       12.0110           0
     21110 MEMB     183      SAPS     O22      OBL     -0.630000       15.9994           0
     21111 MEMB     183      SAPS     C22      CTL2    -0.220000       12.0110           0
     21112 MEMB     183      SAPS     H2R      HAL2     0.900000E-01   1.00800           0
     21113 MEMB     183      SAPS     H2S      HAL2     0.900000E-01   1.00800           0
     21114 MEMB     183      SAPS     C3       CTL2     0.800000E-01   12.0110           0
     21115 MEMB     183      SAPS     HX       HAL2     0.900000E-01   1.00800           0
     21116 MEMB     183      SAPS     HY       HAL2     0.900000E-01   1.00800           0
     21117 MEMB     183      SAPS     O31      OSL     -0.490000       15.9994           0
     21118 MEMB     183      SAPS     C31      CL       0.900000       12.0110           0
     21119 MEMB     183      SAPS     O32      OBL     -0.630000       15.9994           0
     21120 MEMB     183      SAPS     C32      CTL2    -0.220000       12.0110           0
     21121 MEMB     183      SAPS     H2X      HAL2     0.900000E-01   1.00800           0
     21122 MEMB     183      SAPS     H2Y      HAL2     0.900000E-01   1.00800           0
     21123 MEMB     183      SAPS     C23      CTL2    -0.180000       12.0110           0
     21124 MEMB     183      SAPS     H3R      HAL2     0.900000E-01   1.00800           0
     21125 MEMB     183      SAPS     H3S      HAL2     0.900000E-01   1.00800           0
     21126 MEMB     183      SAPS     C24      CTL2    -0.180000       12.0110           0
     21127 MEMB     183      SAPS     H4R      HAL2     0.900000E-01   1.00800           0
     21128 MEMB     183      SAPS     H4S      HAL2     0.900000E-01   1.00800           0
     21129 MEMB     183      SAPS     C25      CEL1    -0.150000       12.0110           0
     21130 MEMB     183      SAPS     H5R      HEL1     0.150000       1.00800           0
     21131 MEMB     183      SAPS     C26      CEL1    -0.150000       12.0110           0
     21132 MEMB     183      SAPS     H6R      HEL1     0.150000       1.00800           0
     21133 MEMB     183      SAPS     C27      CTL2    -0.180000       12.0110           0
     21134 MEMB     183      SAPS     H7R      HAL2     0.900000E-01   1.00800           0
     21135 MEMB     183      SAPS     H7S      HAL2     0.900000E-01   1.00800           0
     21136 MEMB     183      SAPS     C28      CEL1    -0.150000       12.0110           0
     21137 MEMB     183      SAPS     H8R      HEL1     0.150000       1.00800           0
     21138 MEMB     183      SAPS     C29      CEL1    -0.150000       12.0110           0
     21139 MEMB     183      SAPS     H9R      HEL1     0.150000       1.00800           0
     21140 MEMB     183      SAPS     C210     CTL2    -0.180000       12.0110           0
     21141 MEMB     183      SAPS     H10R     HAL2     0.900000E-01   1.00800           0
     21142 MEMB     183      SAPS     H10S     HAL2     0.900000E-01   1.00800           0
     21143 MEMB     183      SAPS     C211     CEL1    -0.150000       12.0110           0
     21144 MEMB     183      SAPS     H11R     HEL1     0.150000       1.00800           0
     21145 MEMB     183      SAPS     C212     CEL1    -0.150000       12.0110           0
     21146 MEMB     183      SAPS     H12R     HEL1     0.150000       1.00800           0
     21147 MEMB     183      SAPS     C213     CTL2    -0.180000       12.0110           0
     21148 MEMB     183      SAPS     H13R     HAL2     0.900000E-01   1.00800           0
     21149 MEMB     183      SAPS     H13S     HAL2     0.900000E-01   1.00800           0
     21150 MEMB     183      SAPS     C214     CEL1    -0.150000       12.0110           0
     21151 MEMB     183      SAPS     H14R     HEL1     0.150000       1.00800           0
     21152 MEMB     183      SAPS     C215     CEL1    -0.150000       12.0110           0
     21153 MEMB     183      SAPS     H15R     HEL1     0.150000       1.00800           0
     21154 MEMB     183      SAPS     C216     CTL2    -0.180000       12.0110           0
     21155 MEMB     183      SAPS     H16R     HAL2     0.900000E-01   1.00800           0
     21156 MEMB     183      SAPS     H16S     HAL2     0.900000E-01   1.00800           0
     21157 MEMB     183      SAPS     C217     CTL2    -0.180000       12.0110           0
     21158 MEMB     183      SAPS     H17R     HAL2     0.900000E-01   1.00800           0
     21159 MEMB     183      SAPS     H17S     HAL2     0.900000E-01   1.00800           0
     21160 MEMB     183      SAPS     C218     CTL2    -0.180000       12.0110           0
     21161 MEMB     183      SAPS     H18R     HAL2     0.900000E-01   1.00800           0
     21162 MEMB     183      SAPS     H18S     HAL2     0.900000E-01   1.00800           0
     21163 MEMB     183      SAPS     C219     CTL2    -0.180000       12.0110           0
     21164 MEMB     183      SAPS     H19R     HAL2     0.900000E-01   1.00800           0
     21165 MEMB     183      SAPS     H19S     HAL2     0.900000E-01   1.00800           0
     21166 MEMB     183      SAPS     C220     CTL3    -0.270000       12.0110           0
     21167 MEMB     183      SAPS     H20R     HAL3     0.900000E-01   1.00800           0
     21168 MEMB     183      SAPS     H20S     HAL3     0.900000E-01   1.00800           0
     21169 MEMB     183      SAPS     H20T     HAL3     0.900000E-01   1.00800           0
     21170 MEMB     183      SAPS     C33      CTL2    -0.180000       12.0110           0
     21171 MEMB     183      SAPS     H3X      HAL2     0.900000E-01   1.00800           0
     21172 MEMB     183      SAPS     H3Y      HAL2     0.900000E-01   1.00800           0
     21173 MEMB     183      SAPS     C34      CTL2    -0.180000       12.0110           0
     21174 MEMB     183      SAPS     H4X      HAL2     0.900000E-01   1.00800           0
     21175 MEMB     183      SAPS     H4Y      HAL2     0.900000E-01   1.00800           0
     21176 MEMB     183      SAPS     C35      CTL2    -0.180000       12.0110           0
     21177 MEMB     183      SAPS     H5X      HAL2     0.900000E-01   1.00800           0
     21178 MEMB     183      SAPS     H5Y      HAL2     0.900000E-01   1.00800           0
     21179 MEMB     183      SAPS     C36      CTL2    -0.180000       12.0110           0
     21180 MEMB     183      SAPS     H6X      HAL2     0.900000E-01   1.00800           0
     21181 MEMB     183      SAPS     H6Y      HAL2     0.900000E-01   1.00800           0
     21182 MEMB     183      SAPS     C37      CTL2    -0.180000       12.0110           0
     21183 MEMB     183      SAPS     H7X      HAL2     0.900000E-01   1.00800           0
     21184 MEMB     183      SAPS     H7Y      HAL2     0.900000E-01   1.00800           0
     21185 MEMB     183      SAPS     C38      CTL2    -0.180000       12.0110           0
     21186 MEMB     183      SAPS     H8X      HAL2     0.900000E-01   1.00800           0
     21187 MEMB     183      SAPS     H8Y      HAL2     0.900000E-01   1.00800           0
     21188 MEMB     183      SAPS     C39      CTL2    -0.180000       12.0110           0
     21189 MEMB     183      SAPS     H9X      HAL2     0.900000E-01   1.00800           0
     21190 MEMB     183      SAPS     H9Y      HAL2     0.900000E-01   1.00800           0
     21191 MEMB     183      SAPS     C310     CTL2    -0.180000       12.0110           0
     21192 MEMB     183      SAPS     H10X     HAL2     0.900000E-01   1.00800           0
     21193 MEMB     183      SAPS     H10Y     HAL2     0.900000E-01   1.00800           0
     21194 MEMB     183      SAPS     C311     CTL2    -0.180000       12.0110           0
     21195 MEMB     183      SAPS     H11X     HAL2     0.900000E-01   1.00800           0
     21196 MEMB     183      SAPS     H11Y     HAL2     0.900000E-01   1.00800           0
     21197 MEMB     183      SAPS     C312     CTL2    -0.180000       12.0110           0
     21198 MEMB     183      SAPS     H12X     HAL2     0.900000E-01   1.00800           0
     21199 MEMB     183      SAPS     H12Y     HAL2     0.900000E-01   1.00800           0
     21200 MEMB     183      SAPS     C313     CTL2    -0.180000       12.0110           0
     21201 MEMB     183      SAPS     H13X     HAL2     0.900000E-01   1.00800           0
     21202 MEMB     183      SAPS     H13Y     HAL2     0.900000E-01   1.00800           0
     21203 MEMB     183      SAPS     C314     CTL2    -0.180000       12.0110           0
     21204 MEMB     183      SAPS     H14X     HAL2     0.900000E-01   1.00800           0
     21205 MEMB     183      SAPS     H14Y     HAL2     0.900000E-01   1.00800           0
     21206 MEMB     183      SAPS     C315     CTL2    -0.180000       12.0110           0
     21207 MEMB     183      SAPS     H15X     HAL2     0.900000E-01   1.00800           0
     21208 MEMB     183      SAPS     H15Y     HAL2     0.900000E-01   1.00800           0
     21209 MEMB     183      SAPS     C316     CTL2    -0.180000       12.0110           0
     21210 MEMB     183      SAPS     H16X     HAL2     0.900000E-01   1.00800           0
     21211 MEMB     183      SAPS     H16Y     HAL2     0.900000E-01   1.00800           0
     21212 MEMB     183      SAPS     C317     CTL2    -0.180000       12.0110           0
     21213 MEMB     183      SAPS     H17X     HAL2     0.900000E-01   1.00800           0
     21214 MEMB     183      SAPS     H17Y     HAL2     0.900000E-01   1.00800           0
     21215 MEMB     183      SAPS     C318     CTL3    -0.270000       12.0110           0
     21216 MEMB     183      SAPS     H18X     HAL3     0.900000E-01   1.00800           0
     21217 MEMB     183      SAPS     H18Y     HAL3     0.900000E-01   1.00800           0
     21218 MEMB     183      SAPS     H18Z     HAL3     0.900000E-01   1.00800           0
     21219 MEMB     184      SAPC     N        NTL     -0.600000       14.0070           0
     21220 MEMB     184      SAPC     C12      CTL2    -0.100000       12.0110           0
     21221 MEMB     184      SAPC     H12A     HL       0.250000       1.00800           0
     21222 MEMB     184      SAPC     H12B     HL       0.250000       1.00800           0
     21223 MEMB     184      SAPC     C13      CTL5    -0.350000       12.0110           0
     21224 MEMB     184      SAPC     H13A     HL       0.250000       1.00800           0
     21225 MEMB     184      SAPC     H13B     HL       0.250000       1.00800           0
     21226 MEMB     184      SAPC     H13C     HL       0.250000       1.00800           0
     21227 MEMB     184      SAPC     C14      CTL5    -0.350000       12.0110           0
     21228 MEMB     184      SAPC     H14A     HL       0.250000       1.00800           0
     21229 MEMB     184      SAPC     H14B     HL       0.250000       1.00800           0
     21230 MEMB     184      SAPC     H14C     HL       0.250000       1.00800           0
     21231 MEMB     184      SAPC     C15      CTL5    -0.350000       12.0110           0
     21232 MEMB     184      SAPC     H15A     HL       0.250000       1.00800           0
     21233 MEMB     184      SAPC     H15B     HL       0.250000       1.00800           0
     21234 MEMB     184      SAPC     H15C     HL       0.250000       1.00800           0
     21235 MEMB     184      SAPC     C11      CTL2    -0.800000E-01   12.0110           0
     21236 MEMB     184      SAPC     H11A     HAL2     0.900000E-01   1.00800           0
     21237 MEMB     184      SAPC     H11B     HAL2     0.900000E-01   1.00800           0
     21238 MEMB     184      SAPC     P        PL        1.50000       30.9740           0
     21239 MEMB     184      SAPC     O13      O2L     -0.780000       15.9994           0
     21240 MEMB     184      SAPC     O14      O2L     -0.780000       15.9994           0
     21241 MEMB     184      SAPC     O12      OSLP    -0.570000       15.9994           0
     21242 MEMB     184      SAPC     O11      OSLP    -0.570000       15.9994           0
     21243 MEMB     184      SAPC     C1       CTL2    -0.800000E-01   12.0110           0
     21244 MEMB     184      SAPC     HA       HAL2     0.900000E-01   1.00800           0
     21245 MEMB     184      SAPC     HB       HAL2     0.900000E-01   1.00800           0
     21246 MEMB     184      SAPC     C2       CTL1     0.170000       12.0110           0
     21247 MEMB     184      SAPC     HS       HAL1     0.900000E-01   1.00800           0
     21248 MEMB     184      SAPC     O21      OSL     -0.490000       15.9994           0
     21249 MEMB     184      SAPC     C21      CL       0.900000       12.0110           0
     21250 MEMB     184      SAPC     O22      OBL     -0.630000       15.9994           0
     21251 MEMB     184      SAPC     C22      CTL2    -0.220000       12.0110           0
     21252 MEMB     184      SAPC     H2R      HAL2     0.900000E-01   1.00800           0
     21253 MEMB     184      SAPC     H2S      HAL2     0.900000E-01   1.00800           0
     21254 MEMB     184      SAPC     C3       CTL2     0.800000E-01   12.0110           0
     21255 MEMB     184      SAPC     HX       HAL2     0.900000E-01   1.00800           0
     21256 MEMB     184      SAPC     HY       HAL2     0.900000E-01   1.00800           0
     21257 MEMB     184      SAPC     O31      OSL     -0.490000       15.9994           0
     21258 MEMB     184      SAPC     C31      CL       0.900000       12.0110           0
     21259 MEMB     184      SAPC     O32      OBL     -0.630000       15.9994           0
     21260 MEMB     184      SAPC     C32      CTL2    -0.220000       12.0110           0
     21261 MEMB     184      SAPC     H2X      HAL2     0.900000E-01   1.00800           0
     21262 MEMB     184      SAPC     H2Y      HAL2     0.900000E-01   1.00800           0
     21263 MEMB     184      SAPC     C23      CTL2    -0.180000       12.0110           0
     21264 MEMB     184      SAPC     H3R      HAL2     0.900000E-01   1.00800           0
     21265 MEMB     184      SAPC     H3S      HAL2     0.900000E-01   1.00800           0
     21266 MEMB     184      SAPC     C24      CTL2    -0.180000       12.0110           0
     21267 MEMB     184      SAPC     H4R      HAL2     0.900000E-01   1.00800           0
     21268 MEMB     184      SAPC     H4S      HAL2     0.900000E-01   1.00800           0
     21269 MEMB     184      SAPC     C25      CEL1    -0.150000       12.0110           0
     21270 MEMB     184      SAPC     H5R      HEL1     0.150000       1.00800           0
     21271 MEMB     184      SAPC     C26      CEL1    -0.150000       12.0110           0
     21272 MEMB     184      SAPC     H6R      HEL1     0.150000       1.00800           0
     21273 MEMB     184      SAPC     C27      CTL2    -0.180000       12.0110           0
     21274 MEMB     184      SAPC     H7R      HAL2     0.900000E-01   1.00800           0
     21275 MEMB     184      SAPC     H7S      HAL2     0.900000E-01   1.00800           0
     21276 MEMB     184      SAPC     C28      CEL1    -0.150000       12.0110           0
     21277 MEMB     184      SAPC     H8R      HEL1     0.150000       1.00800           0
     21278 MEMB     184      SAPC     C29      CEL1    -0.150000       12.0110           0
     21279 MEMB     184      SAPC     H9R      HEL1     0.150000       1.00800           0
     21280 MEMB     184      SAPC     C210     CTL2    -0.180000       12.0110           0
     21281 MEMB     184      SAPC     H10R     HAL2     0.900000E-01   1.00800           0
     21282 MEMB     184      SAPC     H10S     HAL2     0.900000E-01   1.00800           0
     21283 MEMB     184      SAPC     C211     CEL1    -0.150000       12.0110           0
     21284 MEMB     184      SAPC     H11R     HEL1     0.150000       1.00800           0
     21285 MEMB     184      SAPC     C212     CEL1    -0.150000       12.0110           0
     21286 MEMB     184      SAPC     H12R     HEL1     0.150000       1.00800           0
     21287 MEMB     184      SAPC     C213     CTL2    -0.180000       12.0110           0
     21288 MEMB     184      SAPC     H13R     HAL2     0.900000E-01   1.00800           0
     21289 MEMB     184      SAPC     H13S     HAL2     0.900000E-01   1.00800           0
     21290 MEMB     184      SAPC     C214     CEL1    -0.150000       12.0110           0
     21291 MEMB     184      SAPC     H14R     HEL1     0.150000       1.00800           0
     21292 MEMB     184      SAPC     C215     CEL1    -0.150000       12.0110           0
     21293 MEMB     184      SAPC     H15R     HEL1     0.150000       1.00800           0
     21294 MEMB     184      SAPC     C216     CTL2    -0.180000       12.0110           0
     21295 MEMB     184      SAPC     H16R     HAL2     0.900000E-01   1.00800           0
     21296 MEMB     184      SAPC     H16S     HAL2     0.900000E-01   1.00800           0
     21297 MEMB     184      SAPC     C217     CTL2    -0.180000       12.0110           0
     21298 MEMB     184      SAPC     H17R     HAL2     0.900000E-01   1.00800           0
     21299 MEMB     184      SAPC     H17S     HAL2     0.900000E-01   1.00800           0
     21300 MEMB     184      SAPC     C218     CTL2    -0.270000       12.0110           0
     21301 MEMB     184      SAPC     H18R     HAL2     0.900000E-01   1.00800           0
     21302 MEMB     184      SAPC     H18S     HAL2     0.900000E-01   1.00800           0
     21303 MEMB     184      SAPC     C219     CTL2    -0.180000       12.0110           0
     21304 MEMB     184      SAPC     H19R     HAL2     0.900000E-01   1.00800           0
     21305 MEMB     184      SAPC     H19S     HAL2     0.900000E-01   1.00800           0
     21306 MEMB     184      SAPC     C220     CTL3    -0.180000       12.0110           0
     21307 MEMB     184      SAPC     H20R     HAL3     0.900000E-01   1.00800           0
     21308 MEMB     184      SAPC     H20S     HAL3     0.900000E-01   1.00800           0
     21309 MEMB     184      SAPC     H20T     HAL3     0.900000E-01   1.00800           0
     21310 MEMB     184      SAPC     C33      CTL2    -0.180000       12.0110           0
     21311 MEMB     184      SAPC     H3X      HAL2     0.900000E-01   1.00800           0
     21312 MEMB     184      SAPC     H3Y      HAL2     0.900000E-01   1.00800           0
     21313 MEMB     184      SAPC     C34      CTL2    -0.180000       12.0110           0
     21314 MEMB     184      SAPC     H4X      HAL2     0.900000E-01   1.00800           0
     21315 MEMB     184      SAPC     H4Y      HAL2     0.900000E-01   1.00800           0
     21316 MEMB     184      SAPC     C35      CTL2    -0.180000       12.0110           0
     21317 MEMB     184      SAPC     H5X      HAL2     0.900000E-01   1.00800           0
     21318 MEMB     184      SAPC     H5Y      HAL2     0.900000E-01   1.00800           0
     21319 MEMB     184      SAPC     C36      CTL2    -0.180000       12.0110           0
     21320 MEMB     184      SAPC     H6X      HAL2     0.900000E-01   1.00800           0
     21321 MEMB     184      SAPC     H6Y      HAL2     0.900000E-01   1.00800           0
     21322 MEMB     184      SAPC     C37      CTL2    -0.180000       12.0110           0
     21323 MEMB     184      SAPC     H7X      HAL2     0.900000E-01   1.00800           0
     21324 MEMB     184      SAPC     H7Y      HAL2     0.900000E-01   1.00800           0
     21325 MEMB     184      SAPC     C38      CTL2    -0.180000       12.0110           0
     21326 MEMB     184      SAPC     H8X      HAL2     0.900000E-01   1.00800           0
     21327 MEMB     184      SAPC     H8Y      HAL2     0.900000E-01   1.00800           0
     21328 MEMB     184      SAPC     C39      CTL2    -0.180000       12.0110           0
     21329 MEMB     184      SAPC     H9X      HAL2     0.900000E-01   1.00800           0
     21330 MEMB     184      SAPC     H9Y      HAL2     0.900000E-01   1.00800           0
     21331 MEMB     184      SAPC     C310     CTL2    -0.180000       12.0110           0
     21332 MEMB     184      SAPC     H10X     HAL2     0.900000E-01   1.00800           0
     21333 MEMB     184      SAPC     H10Y     HAL2     0.900000E-01   1.00800           0
     21334 MEMB     184      SAPC     C311     CTL2    -0.180000       12.0110           0
     21335 MEMB     184      SAPC     H11X     HAL2     0.900000E-01   1.00800           0
     21336 MEMB     184      SAPC     H11Y     HAL2     0.900000E-01   1.00800           0
     21337 MEMB     184      SAPC     C312     CTL2    -0.180000       12.0110           0
     21338 MEMB     184      SAPC     H12X     HAL2     0.900000E-01   1.00800           0
     21339 MEMB     184      SAPC     H12Y     HAL2     0.900000E-01   1.00800           0
     21340 MEMB     184      SAPC     C313     CTL2    -0.180000       12.0110           0
     21341 MEMB     184      SAPC     H13X     HAL2     0.900000E-01   1.00800           0
     21342 MEMB     184      SAPC     H13Y     HAL2     0.900000E-01   1.00800           0
     21343 MEMB     184      SAPC     C314     CTL2    -0.180000       12.0110           0
     21344 MEMB     184      SAPC     H14X     HAL2     0.900000E-01   1.00800           0
     21345 MEMB     184      SAPC     H14Y     HAL2     0.900000E-01   1.00800           0
     21346 MEMB     184      SAPC     C315     CTL2    -0.180000       12.0110           0
     21347 MEMB     184      SAPC     H15X     HAL2     0.900000E-01   1.00800           0
     21348 MEMB     184      SAPC     H15Y     HAL2     0.900000E-01   1.00800           0
     21349 MEMB     184      SAPC     C316     CTL2    -0.180000       12.0110           0
     21350 MEMB     184      SAPC     H16X     HAL2     0.900000E-01   1.00800           0
     21351 MEMB     184      SAPC     H16Y     HAL2     0.900000E-01   1.00800           0
     21352 MEMB     184      SAPC     C317     CTL2    -0.180000       12.0110           0
     21353 MEMB     184      SAPC     H17X     HAL2     0.900000E-01   1.00800           0
     21354 MEMB     184      SAPC     H17Y     HAL2     0.900000E-01   1.00800           0
     21355 MEMB     184      SAPC     C318     CTL3    -0.270000       12.0110           0
     21356 MEMB     184      SAPC     H18X     HAL3     0.900000E-01   1.00800           0
     21357 MEMB     184      SAPC     H18Y     HAL3     0.900000E-01   1.00800           0
     21358 MEMB     184      SAPC     H18Z     HAL3     0.900000E-01   1.00800           0
     21359 MEMB     185      SLPC     N        NTL     -0.600000       14.0070           0
     21360 MEMB     185      SLPC     C13      CTL5    -0.350000       12.0110           0
     21361 MEMB     185      SLPC     H13A     HL       0.250000       1.00800           0
     21362 MEMB     185      SLPC     H13B     HL       0.250000       1.00800           0
     21363 MEMB     185      SLPC     H13C     HL       0.250000       1.00800           0
     21364 MEMB     185      SLPC     C14      CTL5    -0.350000       12.0110           0
     21365 MEMB     185      SLPC     H14A     HL       0.250000       1.00800           0
     21366 MEMB     185      SLPC     H14B     HL       0.250000       1.00800           0
     21367 MEMB     185      SLPC     H14C     HL       0.250000       1.00800           0
     21368 MEMB     185      SLPC     C15      CTL5    -0.350000       12.0110           0
     21369 MEMB     185      SLPC     H15A     HL       0.250000       1.00800           0
     21370 MEMB     185      SLPC     H15B     HL       0.250000       1.00800           0
     21371 MEMB     185      SLPC     H15C     HL       0.250000       1.00800           0
     21372 MEMB     185      SLPC     C12      CTL2    -0.100000       12.0110           0
     21373 MEMB     185      SLPC     H12A     HL       0.250000       1.00800           0
     21374 MEMB     185      SLPC     H12B     HL       0.250000       1.00800           0
     21375 MEMB     185      SLPC     C11      CTL2    -0.800000E-01   12.0110           0
     21376 MEMB     185      SLPC     H11A     HAL2     0.900000E-01   1.00800           0
     21377 MEMB     185      SLPC     H11B     HAL2     0.900000E-01   1.00800           0
     21378 MEMB     185      SLPC     P        PL        1.50000       30.9740           0
     21379 MEMB     185      SLPC     O13      O2L     -0.780000       15.9994           0
     21380 MEMB     185      SLPC     O14      O2L     -0.780000       15.9994           0
     21381 MEMB     185      SLPC     O12      OSLP    -0.570000       15.9994           0
     21382 MEMB     185      SLPC     O11      OSLP    -0.570000       15.9994           0
     21383 MEMB     185      SLPC     C1       CTL2    -0.800000E-01   12.0110           0
     21384 MEMB     185      SLPC     HA       HAL2     0.900000E-01   1.00800           0
     21385 MEMB     185      SLPC     HB       HAL2     0.900000E-01   1.00800           0
     21386 MEMB     185      SLPC     C2       CTL1     0.170000       12.0110           0
     21387 MEMB     185      SLPC     HS       HAL1     0.900000E-01   1.00800           0
     21388 MEMB     185      SLPC     O21      OSL     -0.490000       15.9994           0
     21389 MEMB     185      SLPC     C21      CL       0.900000       12.0110           0
     21390 MEMB     185      SLPC     O22      OBL     -0.630000       15.9994           0
     21391 MEMB     185      SLPC     C22      CTL2    -0.220000       12.0110           0
     21392 MEMB     185      SLPC     H2R      HAL2     0.900000E-01   1.00800           0
     21393 MEMB     185      SLPC     H2S      HAL2     0.900000E-01   1.00800           0
     21394 MEMB     185      SLPC     C3       CTL2     0.800000E-01   12.0110           0
     21395 MEMB     185      SLPC     HX       HAL2     0.900000E-01   1.00800           0
     21396 MEMB     185      SLPC     HY       HAL2     0.900000E-01   1.00800           0
     21397 MEMB     185      SLPC     O31      OSL     -0.490000       15.9994           0
     21398 MEMB     185      SLPC     C31      CL       0.900000       12.0110           0
     21399 MEMB     185      SLPC     O32      OBL     -0.630000       15.9994           0
     21400 MEMB     185      SLPC     C32      CTL2    -0.220000       12.0110           0
     21401 MEMB     185      SLPC     H2X      HAL2     0.900000E-01   1.00800           0
     21402 MEMB     185      SLPC     H2Y      HAL2     0.900000E-01   1.00800           0
     21403 MEMB     185      SLPC     C23      CTL2    -0.180000       12.0110           0
     21404 MEMB     185      SLPC     H3R      HAL2     0.900000E-01   1.00800           0
     21405 MEMB     185      SLPC     H3S      HAL2     0.900000E-01   1.00800           0
     21406 MEMB     185      SLPC     C24      CTL2    -0.180000       12.0110           0
     21407 MEMB     185      SLPC     H4R      HAL2     0.900000E-01   1.00800           0
     21408 MEMB     185      SLPC     H4S      HAL2     0.900000E-01   1.00800           0
     21409 MEMB     185      SLPC     C25      CTL2    -0.180000       12.0110           0
     21410 MEMB     185      SLPC     H5R      HAL2     0.900000E-01   1.00800           0
     21411 MEMB     185      SLPC     H5S      HAL2     0.900000E-01   1.00800           0
     21412 MEMB     185      SLPC     C26      CTL2    -0.180000       12.0110           0
     21413 MEMB     185      SLPC     H6R      HAL2     0.900000E-01   1.00800           0
     21414 MEMB     185      SLPC     H6S      HAL2     0.900000E-01   1.00800           0
     21415 MEMB     185      SLPC     C27      CTL2    -0.180000       12.0110           0
     21416 MEMB     185      SLPC     H7R      HAL2     0.900000E-01   1.00800           0
     21417 MEMB     185      SLPC     H7S      HAL2     0.900000E-01   1.00800           0
     21418 MEMB     185      SLPC     C28      CTL2    -0.180000       12.0110           0
     21419 MEMB     185      SLPC     H8R      HAL2     0.900000E-01   1.00800           0
     21420 MEMB     185      SLPC     H8S      HAL2     0.900000E-01   1.00800           0
     21421 MEMB     185      SLPC     C29      CEL1    -0.150000       12.0110           0
     21422 MEMB     185      SLPC     H9R      HEL1     0.150000       1.00800           0
     21423 MEMB     185      SLPC     C210     CEL1    -0.150000       12.0110           0
     21424 MEMB     185      SLPC     H10R     HEL1     0.150000       1.00800           0
     21425 MEMB     185      SLPC     C211     CTL2    -0.180000       12.0110           0
     21426 MEMB     185      SLPC     H11R     HAL2     0.900000E-01   1.00800           0
     21427 MEMB     185      SLPC     H11S     HAL2     0.900000E-01   1.00800           0
     21428 MEMB     185      SLPC     C212     CEL1    -0.150000       12.0110           0
     21429 MEMB     185      SLPC     H12R     HEL1     0.150000       1.00800           0
     21430 MEMB     185      SLPC     C213     CEL1    -0.150000       12.0110           0
     21431 MEMB     185      SLPC     H13R     HEL1     0.150000       1.00800           0
     21432 MEMB     185      SLPC     C214     CTL2    -0.180000       12.0110           0
     21433 MEMB     185      SLPC     H14R     HAL2     0.900000E-01   1.00800           0
     21434 MEMB     185      SLPC     H14S     HAL2     0.900000E-01   1.00800           0
     21435 MEMB     185      SLPC     C215     CTL2    -0.180000       12.0110           0
     21436 MEMB     185      SLPC     H15R     HAL2     0.900000E-01   1.00800           0
     21437 MEMB     185      SLPC     H15S     HAL2     0.900000E-01   1.00800           0
     21438 MEMB     185      SLPC     C216     CTL2    -0.180000       12.0110           0
     21439 MEMB     185      SLPC     H16R     HAL2     0.900000E-01   1.00800           0
     21440 MEMB     185      SLPC     H16S     HAL2     0.900000E-01   1.00800           0
     21441 MEMB     185      SLPC     C217     CTL2    -0.180000       12.0110           0
     21442 MEMB     185      SLPC     H17R     HAL2     0.900000E-01   1.00800           0
     21443 MEMB     185      SLPC     H17S     HAL2     0.900000E-01   1.00800           0
     21444 MEMB     185      SLPC     C218     CTL3    -0.270000       12.0110           0
     21445 MEMB     185      SLPC     H18R     HAL3     0.900000E-01   1.00800           0
     21446 MEMB     185      SLPC     H18S     HAL3     0.900000E-01   1.00800           0
     21447 MEMB     185      SLPC     H18T     HAL3     0.900000E-01   1.00800           0
     21448 MEMB     185      SLPC     C33      CTL2    -0.180000       12.0110           0
     21449 MEMB     185      SLPC     H3X      HAL2     0.900000E-01   1.00800           0
     21450 MEMB     185      SLPC     H3Y      HAL2     0.900000E-01   1.00800           0
     21451 MEMB     185      SLPC     C34      CTL2    -0.180000       12.0110           0
     21452 MEMB     185      SLPC     H4X      HAL2     0.900000E-01   1.00800           0
     21453 MEMB     185      SLPC     H4Y      HAL2     0.900000E-01   1.00800           0
     21454 MEMB     185      SLPC     C35      CTL2    -0.180000       12.0110           0
     21455 MEMB     185      SLPC     H5X      HAL2     0.900000E-01   1.00800           0
     21456 MEMB     185      SLPC     H5Y      HAL2     0.900000E-01   1.00800           0
     21457 MEMB     185      SLPC     C36      CTL2    -0.180000       12.0110           0
     21458 MEMB     185      SLPC     H6X      HAL2     0.900000E-01   1.00800           0
     21459 MEMB     185      SLPC     H6Y      HAL2     0.900000E-01   1.00800           0
     21460 MEMB     185      SLPC     C37      CTL2    -0.180000       12.0110           0
     21461 MEMB     185      SLPC     H7X      HAL2     0.900000E-01   1.00800           0
     21462 MEMB     185      SLPC     H7Y      HAL2     0.900000E-01   1.00800           0
     21463 MEMB     185      SLPC     C38      CTL2    -0.180000       12.0110           0
     21464 MEMB     185      SLPC     H8X      HAL2     0.900000E-01   1.00800           0
     21465 MEMB     185      SLPC     H8Y      HAL2     0.900000E-01   1.00800           0
     21466 MEMB     185      SLPC     C39      CTL2    -0.180000       12.0110           0
     21467 MEMB     185      SLPC     H9X      HAL2     0.900000E-01   1.00800           0
     21468 MEMB     185      SLPC     H9Y      HAL2     0.900000E-01   1.00800           0
     21469 MEMB     185      SLPC     C310     CTL2    -0.180000       12.0110           0
     21470 MEMB     185      SLPC     H10X     HAL2     0.900000E-01   1.00800           0
     21471 MEMB     185      SLPC     H10Y     HAL2     0.900000E-01   1.00800           0
     21472 MEMB     185      SLPC     C311     CTL2    -0.180000       12.0110           0
     21473 MEMB     185      SLPC     H11X     HAL2     0.900000E-01   1.00800           0
     21474 MEMB     185      SLPC     H11Y     HAL2     0.900000E-01   1.00800           0
     21475 MEMB     185      SLPC     C312     CTL2    -0.180000       12.0110           0
     21476 MEMB     185      SLPC     H12X     HAL2     0.900000E-01   1.00800           0
     21477 MEMB     185      SLPC     H12Y     HAL2     0.900000E-01   1.00800           0
     21478 MEMB     185      SLPC     C313     CTL2    -0.180000       12.0110           0
     21479 MEMB     185      SLPC     H13X     HAL2     0.900000E-01   1.00800           0
     21480 MEMB     185      SLPC     H13Y     HAL2     0.900000E-01   1.00800           0
     21481 MEMB     185      SLPC     C314     CTL2    -0.180000       12.0110           0
     21482 MEMB     185      SLPC     H14X     HAL2     0.900000E-01   1.00800           0
     21483 MEMB     185      SLPC     H14Y     HAL2     0.900000E-01   1.00800           0
     21484 MEMB     185      SLPC     C315     CTL2    -0.180000       12.0110           0
     21485 MEMB     185      SLPC     H15X     HAL2     0.900000E-01   1.00800           0
     21486 MEMB     185      SLPC     H15Y     HAL2     0.900000E-01   1.00800           0
     21487 MEMB     185      SLPC     C316     CTL2    -0.180000       12.0110           0
     21488 MEMB     185      SLPC     H16X     HAL2     0.900000E-01   1.00800           0
     21489 MEMB     185      SLPC     H16Y     HAL2     0.900000E-01   1.00800           0
     21490 MEMB     185      SLPC     C317     CTL2    -0.180000       12.0110           0
     21491 MEMB     185      SLPC     H17X     HAL2     0.900000E-01   1.00800           0
     21492 MEMB     185      SLPC     H17Y     HAL2     0.900000E-01   1.00800           0
     21493 MEMB     185      SLPC     C318     CTL3    -0.270000       12.0110           0
     21494 MEMB     185      SLPC     H18X     HAL3     0.900000E-01   1.00800           0
     21495 MEMB     185      SLPC     H18Y     HAL3     0.900000E-01   1.00800           0
     21496 MEMB     185      SLPC     H18Z     HAL3     0.900000E-01   1.00800           0
     21497 MEMB     186      CHL1     C3       CRL1     0.140000       12.0110           0
     21498 MEMB     186      CHL1     H3       HGA1     0.900000E-01   1.00800           0
     21499 MEMB     186      CHL1     O3       OHL     -0.660000       15.9994           0
     21500 MEMB     186      CHL1     H3'      HOL      0.430000       1.00800           0
     21501 MEMB     186      CHL1     C4       CRL2    -0.180000       12.0110           0
     21502 MEMB     186      CHL1     H4A      HGA2     0.900000E-01   1.00800           0
     21503 MEMB     186      CHL1     H4B      HGA2     0.900000E-01   1.00800           0
     21504 MEMB     186      CHL1     C5       CEL1      0.00000       12.0110           0
     21505 MEMB     186      CHL1     C6       CEL1    -0.150000       12.0110           0
     21506 MEMB     186      CHL1     H6       HEL1     0.150000       1.00800           0
     21507 MEMB     186      CHL1     C7       CRL2    -0.180000       12.0110           0
     21508 MEMB     186      CHL1     H7A      HGA2     0.900000E-01   1.00800           0
     21509 MEMB     186      CHL1     H7B      HGA2     0.900000E-01   1.00800           0
     21510 MEMB     186      CHL1     C8       CRL1    -0.900000E-01   12.0110           0
     21511 MEMB     186      CHL1     H8       HGA1     0.900000E-01   1.00800           0
     21512 MEMB     186      CHL1     C14      CRL1    -0.900000E-01   12.0110           0
     21513 MEMB     186      CHL1     H14      HGA1     0.900000E-01   1.00800           0
     21514 MEMB     186      CHL1     C15      CRL2    -0.180000       12.0110           0
     21515 MEMB     186      CHL1     H15A     HGA2     0.900000E-01   1.00800           0
     21516 MEMB     186      CHL1     H15B     HGA2     0.900000E-01   1.00800           0
     21517 MEMB     186      CHL1     C16      CRL2    -0.180000       12.0110           0
     21518 MEMB     186      CHL1     H16A     HGA2     0.900000E-01   1.00800           0
     21519 MEMB     186      CHL1     H16B     HGA2     0.900000E-01   1.00800           0
     21520 MEMB     186      CHL1     C17      CRL1    -0.900000E-01   12.0110           0
     21521 MEMB     186      CHL1     H17      HGA1     0.900000E-01   1.00800           0
     21522 MEMB     186      CHL1     C13      CRL1      0.00000       12.0110           0
     21523 MEMB     186      CHL1     C18      CTL3    -0.270000       12.0110           0
     21524 MEMB     186      CHL1     H18A     HAL3     0.900000E-01   1.00800           0
     21525 MEMB     186      CHL1     H18B     HAL3     0.900000E-01   1.00800           0
     21526 MEMB     186      CHL1     H18C     HAL3     0.900000E-01   1.00800           0
     21527 MEMB     186      CHL1     C12      CRL2    -0.180000       12.0110           0
     21528 MEMB     186      CHL1     H12A     HGA2     0.900000E-01   1.00800           0
     21529 MEMB     186      CHL1     H12B     HGA2     0.900000E-01   1.00800           0
     21530 MEMB     186      CHL1     C11      CRL2    -0.180000       12.0110           0
     21531 MEMB     186      CHL1     H11A     HGA2     0.900000E-01   1.00800           0
     21532 MEMB     186      CHL1     H11B     HGA2     0.900000E-01   1.00800           0
     21533 MEMB     186      CHL1     C9       CRL1    -0.900000E-01   12.0110           0
     21534 MEMB     186      CHL1     H9       HGA1     0.900000E-01   1.00800           0
     21535 MEMB     186      CHL1     C10      CRL1      0.00000       12.0110           0
     21536 MEMB     186      CHL1     C19      CTL3    -0.270000       12.0110           0
     21537 MEMB     186      CHL1     H19A     HAL3     0.900000E-01   1.00800           0
     21538 MEMB     186      CHL1     H19B     HAL3     0.900000E-01   1.00800           0
     21539 MEMB     186      CHL1     H19C     HAL3     0.900000E-01   1.00800           0
     21540 MEMB     186      CHL1     C1       CRL2    -0.180000       12.0110           0
     21541 MEMB     186      CHL1     H1A      HGA2     0.900000E-01   1.00800           0
     21542 MEMB     186      CHL1     H1B      HGA2     0.900000E-01   1.00800           0
     21543 MEMB     186      CHL1     C2       CRL2    -0.180000       12.0110           0
     21544 MEMB     186      CHL1     H2A      HGA2     0.900000E-01   1.00800           0
     21545 MEMB     186      CHL1     H2B      HGA2     0.900000E-01   1.00800           0
     21546 MEMB     186      CHL1     C20      CTL1    -0.900000E-01   12.0110           0
     21547 MEMB     186      CHL1     H20      HAL1     0.900000E-01   1.00800           0
     21548 MEMB     186      CHL1     C21      CTL3    -0.270000       12.0110           0
     21549 MEMB     186      CHL1     H21A     HAL3     0.900000E-01   1.00800           0
     21550 MEMB     186      CHL1     H21B     HAL3     0.900000E-01   1.00800           0
     21551 MEMB     186      CHL1     H21C     HAL3     0.900000E-01   1.00800           0
     21552 MEMB     186      CHL1     C22      CTL2    -0.180000       12.0110           0
     21553 MEMB     186      CHL1     H22A     HAL2     0.900000E-01   1.00800           0
     21554 MEMB     186      CHL1     H22B     HAL2     0.900000E-01   1.00800           0
     21555 MEMB     186      CHL1     C23      CTL2    -0.180000       12.0110           0
     21556 MEMB     186      CHL1     H23A     HAL2     0.900000E-01   1.00800           0
     21557 MEMB     186      CHL1     H23B     HAL2     0.900000E-01   1.00800           0
     21558 MEMB     186      CHL1     C24      CTL2    -0.180000       12.0110           0
     21559 MEMB     186      CHL1     H24A     HAL2     0.900000E-01   1.00800           0
     21560 MEMB     186      CHL1     H24B     HAL2     0.900000E-01   1.00800           0
     21561 MEMB     186      CHL1     C25      CTL1    -0.900000E-01   12.0110           0
     21562 MEMB     186      CHL1     H25      HAL1     0.900000E-01   1.00800           0
     21563 MEMB     186      CHL1     C26      CTL3    -0.270000       12.0110           0
     21564 MEMB     186      CHL1     H26A     HAL3     0.900000E-01   1.00800           0
     21565 MEMB     186      CHL1     H26B     HAL3     0.900000E-01   1.00800           0
     21566 MEMB     186      CHL1     H26C     HAL3     0.900000E-01   1.00800           0
     21567 MEMB     186      CHL1     C27      CTL3    -0.270000       12.0110           0
     21568 MEMB     186      CHL1     H27A     HAL3     0.900000E-01   1.00800           0
     21569 MEMB     186      CHL1     H27B     HAL3     0.900000E-01   1.00800           0
     21570 MEMB     186      CHL1     H27C     HAL3     0.900000E-01   1.00800           0
     21571 MEMB     187      CHL1     C3       CRL1     0.140000       12.0110           0
     21572 MEMB     187      CHL1     H3       HGA1     0.900000E-01   1.00800           0
     21573 MEMB     187      CHL1     O3       OHL     -0.660000       15.9994           0
     21574 MEMB     187      CHL1     H3'      HOL      0.430000       1.00800           0
     21575 MEMB     187      CHL1     C4       CRL2    -0.180000       12.0110           0
     21576 MEMB     187      CHL1     H4A      HGA2     0.900000E-01   1.00800           0
     21577 MEMB     187      CHL1     H4B      HGA2     0.900000E-01   1.00800           0
     21578 MEMB     187      CHL1     C5       CEL1      0.00000       12.0110           0
     21579 MEMB     187      CHL1     C6       CEL1    -0.150000       12.0110           0
     21580 MEMB     187      CHL1     H6       HEL1     0.150000       1.00800           0
     21581 MEMB     187      CHL1     C7       CRL2    -0.180000       12.0110           0
     21582 MEMB     187      CHL1     H7A      HGA2     0.900000E-01   1.00800           0
     21583 MEMB     187      CHL1     H7B      HGA2     0.900000E-01   1.00800           0
     21584 MEMB     187      CHL1     C8       CRL1    -0.900000E-01   12.0110           0
     21585 MEMB     187      CHL1     H8       HGA1     0.900000E-01   1.00800           0
     21586 MEMB     187      CHL1     C14      CRL1    -0.900000E-01   12.0110           0
     21587 MEMB     187      CHL1     H14      HGA1     0.900000E-01   1.00800           0
     21588 MEMB     187      CHL1     C15      CRL2    -0.180000       12.0110           0
     21589 MEMB     187      CHL1     H15A     HGA2     0.900000E-01   1.00800           0
     21590 MEMB     187      CHL1     H15B     HGA2     0.900000E-01   1.00800           0
     21591 MEMB     187      CHL1     C16      CRL2    -0.180000       12.0110           0
     21592 MEMB     187      CHL1     H16A     HGA2     0.900000E-01   1.00800           0
     21593 MEMB     187      CHL1     H16B     HGA2     0.900000E-01   1.00800           0
     21594 MEMB     187      CHL1     C17      CRL1    -0.900000E-01   12.0110           0
     21595 MEMB     187      CHL1     H17      HGA1     0.900000E-01   1.00800           0
     21596 MEMB     187      CHL1     C13      CRL1      0.00000       12.0110           0
     21597 MEMB     187      CHL1     C18      CTL3    -0.270000       12.0110           0
     21598 MEMB     187      CHL1     H18A     HAL3     0.900000E-01   1.00800           0
     21599 MEMB     187      CHL1     H18B     HAL3     0.900000E-01   1.00800           0
     21600 MEMB     187      CHL1     H18C     HAL3     0.900000E-01   1.00800           0
     21601 MEMB     187      CHL1     C12      CRL2    -0.180000       12.0110           0
     21602 MEMB     187      CHL1     H12A     HGA2     0.900000E-01   1.00800           0
     21603 MEMB     187      CHL1     H12B     HGA2     0.900000E-01   1.00800           0
     21604 MEMB     187      CHL1     C11      CRL2    -0.180000       12.0110           0
     21605 MEMB     187      CHL1     H11A     HGA2     0.900000E-01   1.00800           0
     21606 MEMB     187      CHL1     H11B     HGA2     0.900000E-01   1.00800           0
     21607 MEMB     187      CHL1     C9       CRL1    -0.900000E-01   12.0110           0
     21608 MEMB     187      CHL1     H9       HGA1     0.900000E-01   1.00800           0
     21609 MEMB     187      CHL1     C10      CRL1      0.00000       12.0110           0
     21610 MEMB     187      CHL1     C19      CTL3    -0.270000       12.0110           0
     21611 MEMB     187      CHL1     H19A     HAL3     0.900000E-01   1.00800           0
     21612 MEMB     187      CHL1     H19B     HAL3     0.900000E-01   1.00800           0
     21613 MEMB     187      CHL1     H19C     HAL3     0.900000E-01   1.00800           0
     21614 MEMB     187      CHL1     C1       CRL2    -0.180000       12.0110           0
     21615 MEMB     187      CHL1     H1A      HGA2     0.900000E-01   1.00800           0
     21616 MEMB     187      CHL1     H1B      HGA2     0.900000E-01   1.00800           0
     21617 MEMB     187      CHL1     C2       CRL2    -0.180000       12.0110           0
     21618 MEMB     187      CHL1     H2A      HGA2     0.900000E-01   1.00800           0
     21619 MEMB     187      CHL1     H2B      HGA2     0.900000E-01   1.00800           0
     21620 MEMB     187      CHL1     C20      CTL1    -0.900000E-01   12.0110           0
     21621 MEMB     187      CHL1     H20      HAL1     0.900000E-01   1.00800           0
     21622 MEMB     187      CHL1     C21      CTL3    -0.270000       12.0110           0
     21623 MEMB     187      CHL1     H21A     HAL3     0.900000E-01   1.00800           0
     21624 MEMB     187      CHL1     H21B     HAL3     0.900000E-01   1.00800           0
     21625 MEMB     187      CHL1     H21C     HAL3     0.900000E-01   1.00800           0
     21626 MEMB     187      CHL1     C22      CTL2    -0.180000       12.0110           0
     21627 MEMB     187      CHL1     H22A     HAL2     0.900000E-01   1.00800           0
     21628 MEMB     187      CHL1     H22B     HAL2     0.900000E-01   1.00800           0
     21629 MEMB     187      CHL1     C23      CTL2    -0.180000       12.0110           0
     21630 MEMB     187      CHL1     H23A     HAL2     0.900000E-01   1.00800           0
     21631 MEMB     187      CHL1     H23B     HAL2     0.900000E-01   1.00800           0
     21632 MEMB     187      CHL1     C24      CTL2    -0.180000       12.0110           0
     21633 MEMB     187      CHL1     H24A     HAL2     0.900000E-01   1.00800           0
     21634 MEMB     187      CHL1     H24B     HAL2     0.900000E-01   1.00800           0
     21635 MEMB     187      CHL1     C25      CTL1    -0.900000E-01   12.0110           0
     21636 MEMB     187      CHL1     H25      HAL1     0.900000E-01   1.00800           0
     21637 MEMB     187      CHL1     C26      CTL3    -0.270000       12.0110           0
     21638 MEMB     187      CHL1     H26A     HAL3     0.900000E-01   1.00800           0
     21639 MEMB     187      CHL1     H26B     HAL3     0.900000E-01   1.00800           0
     21640 MEMB     187      CHL1     H26C     HAL3     0.900000E-01   1.00800           0
     21641 MEMB     187      CHL1     C27      CTL3    -0.270000       12.0110           0
     21642 MEMB     187      CHL1     H27A     HAL3     0.900000E-01   1.00800           0
     21643 MEMB     187      CHL1     H27B     HAL3     0.900000E-01   1.00800           0
     21644 MEMB     187      CHL1     H27C     HAL3     0.900000E-01   1.00800           0
     21645 MEMB     188      POPC     N        NTL     -0.600000       14.0070           0
     21646 MEMB     188      POPC     C12      CTL2    -0.100000       12.0110           0
     21647 MEMB     188      POPC     H12A     HL       0.250000       1.00800           0
     21648 MEMB     188      POPC     H12B     HL       0.250000       1.00800           0
     21649 MEMB     188      POPC     C13      CTL5    -0.350000       12.0110           0
     21650 MEMB     188      POPC     H13A     HL       0.250000       1.00800           0
     21651 MEMB     188      POPC     H13B     HL       0.250000       1.00800           0
     21652 MEMB     188      POPC     H13C     HL       0.250000       1.00800           0
     21653 MEMB     188      POPC     C14      CTL5    -0.350000       12.0110           0
     21654 MEMB     188      POPC     H14A     HL       0.250000       1.00800           0
     21655 MEMB     188      POPC     H14B     HL       0.250000       1.00800           0
     21656 MEMB     188      POPC     H14C     HL       0.250000       1.00800           0
     21657 MEMB     188      POPC     C15      CTL5    -0.350000       12.0110           0
     21658 MEMB     188      POPC     H15A     HL       0.250000       1.00800           0
     21659 MEMB     188      POPC     H15B     HL       0.250000       1.00800           0
     21660 MEMB     188      POPC     H15C     HL       0.250000       1.00800           0
     21661 MEMB     188      POPC     C11      CTL2    -0.800000E-01   12.0110           0
     21662 MEMB     188      POPC     H11A     HAL2     0.900000E-01   1.00800           0
     21663 MEMB     188      POPC     H11B     HAL2     0.900000E-01   1.00800           0
     21664 MEMB     188      POPC     P        PL        1.50000       30.9740           0
     21665 MEMB     188      POPC     O13      O2L     -0.780000       15.9994           0
     21666 MEMB     188      POPC     O14      O2L     -0.780000       15.9994           0
     21667 MEMB     188      POPC     O12      OSLP    -0.570000       15.9994           0
     21668 MEMB     188      POPC     O11      OSLP    -0.570000       15.9994           0
     21669 MEMB     188      POPC     C1       CTL2    -0.800000E-01   12.0110           0
     21670 MEMB     188      POPC     HA       HAL2     0.900000E-01   1.00800           0
     21671 MEMB     188      POPC     HB       HAL2     0.900000E-01   1.00800           0
     21672 MEMB     188      POPC     C2       CTL1     0.170000       12.0110           0
     21673 MEMB     188      POPC     HS       HAL1     0.900000E-01   1.00800           0
     21674 MEMB     188      POPC     O21      OSL     -0.490000       15.9994           0
     21675 MEMB     188      POPC     C21      CL       0.900000       12.0110           0
     21676 MEMB     188      POPC     O22      OBL     -0.630000       15.9994           0
     21677 MEMB     188      POPC     C22      CTL2    -0.220000       12.0110           0
     21678 MEMB     188      POPC     H2R      HAL2     0.900000E-01   1.00800           0
     21679 MEMB     188      POPC     H2S      HAL2     0.900000E-01   1.00800           0
     21680 MEMB     188      POPC     C3       CTL2     0.800000E-01   12.0110           0
     21681 MEMB     188      POPC     HX       HAL2     0.900000E-01   1.00800           0
     21682 MEMB     188      POPC     HY       HAL2     0.900000E-01   1.00800           0
     21683 MEMB     188      POPC     O31      OSL     -0.490000       15.9994           0
     21684 MEMB     188      POPC     C31      CL       0.900000       12.0110           0
     21685 MEMB     188      POPC     O32      OBL     -0.630000       15.9994           0
     21686 MEMB     188      POPC     C32      CTL2    -0.220000       12.0110           0
     21687 MEMB     188      POPC     H2X      HAL2     0.900000E-01   1.00800           0
     21688 MEMB     188      POPC     H2Y      HAL2     0.900000E-01   1.00800           0
     21689 MEMB     188      POPC     C23      CTL2    -0.180000       12.0110           0
     21690 MEMB     188      POPC     H3R      HAL2     0.900000E-01   1.00800           0
     21691 MEMB     188      POPC     H3S      HAL2     0.900000E-01   1.00800           0
     21692 MEMB     188      POPC     C24      CTL2    -0.180000       12.0110           0
     21693 MEMB     188      POPC     H4R      HAL2     0.900000E-01   1.00800           0
     21694 MEMB     188      POPC     H4S      HAL2     0.900000E-01   1.00800           0
     21695 MEMB     188      POPC     C25      CTL2    -0.180000       12.0110           0
     21696 MEMB     188      POPC     H5R      HAL2     0.900000E-01   1.00800           0
     21697 MEMB     188      POPC     H5S      HAL2     0.900000E-01   1.00800           0
     21698 MEMB     188      POPC     C26      CTL2    -0.180000       12.0110           0
     21699 MEMB     188      POPC     H6R      HAL2     0.900000E-01   1.00800           0
     21700 MEMB     188      POPC     H6S      HAL2     0.900000E-01   1.00800           0
     21701 MEMB     188      POPC     C27      CTL2    -0.180000       12.0110           0
     21702 MEMB     188      POPC     H7R      HAL2     0.900000E-01   1.00800           0
     21703 MEMB     188      POPC     H7S      HAL2     0.900000E-01   1.00800           0
     21704 MEMB     188      POPC     C28      CTL2    -0.180000       12.0110           0
     21705 MEMB     188      POPC     H8R      HAL2     0.900000E-01   1.00800           0
     21706 MEMB     188      POPC     H8S      HAL2     0.900000E-01   1.00800           0
     21707 MEMB     188      POPC     C29      CEL1    -0.150000       12.0110           0
     21708 MEMB     188      POPC     H91      HEL1     0.150000       1.00800           0
     21709 MEMB     188      POPC     C210     CEL1    -0.150000       12.0110           0
     21710 MEMB     188      POPC     H101     HEL1     0.150000       1.00800           0
     21711 MEMB     188      POPC     C211     CTL2    -0.180000       12.0110           0
     21712 MEMB     188      POPC     H11R     HAL2     0.900000E-01   1.00800           0
     21713 MEMB     188      POPC     H11S     HAL2     0.900000E-01   1.00800           0
     21714 MEMB     188      POPC     C212     CTL2    -0.180000       12.0110           0
     21715 MEMB     188      POPC     H12R     HAL2     0.900000E-01   1.00800           0
     21716 MEMB     188      POPC     H12S     HAL2     0.900000E-01   1.00800           0
     21717 MEMB     188      POPC     C213     CTL2    -0.180000       12.0110           0
     21718 MEMB     188      POPC     H13R     HAL2     0.900000E-01   1.00800           0
     21719 MEMB     188      POPC     H13S     HAL2     0.900000E-01   1.00800           0
     21720 MEMB     188      POPC     C214     CTL2    -0.180000       12.0110           0
     21721 MEMB     188      POPC     H14R     HAL2     0.900000E-01   1.00800           0
     21722 MEMB     188      POPC     H14S     HAL2     0.900000E-01   1.00800           0
     21723 MEMB     188      POPC     C215     CTL2    -0.180000       12.0110           0
     21724 MEMB     188      POPC     H15R     HAL2     0.900000E-01   1.00800           0
     21725 MEMB     188      POPC     H15S     HAL2     0.900000E-01   1.00800           0
     21726 MEMB     188      POPC     C216     CTL2    -0.180000       12.0110           0
     21727 MEMB     188      POPC     H16R     HAL2     0.900000E-01   1.00800           0
     21728 MEMB     188      POPC     H16S     HAL2     0.900000E-01   1.00800           0
     21729 MEMB     188      POPC     C217     CTL2    -0.180000       12.0110           0
     21730 MEMB     188      POPC     H17R     HAL2     0.900000E-01   1.00800           0
     21731 MEMB     188      POPC     H17S     HAL2     0.900000E-01   1.00800           0
     21732 MEMB     188      POPC     C218     CTL3    -0.270000       12.0110           0
     21733 MEMB     188      POPC     H18R     HAL3     0.900000E-01   1.00800           0
     21734 MEMB     188      POPC     H18S     HAL3     0.900000E-01   1.00800           0
     21735 MEMB     188      POPC     H18T     HAL3     0.900000E-01   1.00800           0
     21736 MEMB     188      POPC     C33      CTL2    -0.180000       12.0110           0
     21737 MEMB     188      POPC     H3X      HAL2     0.900000E-01   1.00800           0
     21738 MEMB     188      POPC     H3Y      HAL2     0.900000E-01   1.00800           0
     21739 MEMB     188      POPC     C34      CTL2    -0.180000       12.0110           0
     21740 MEMB     188      POPC     H4X      HAL2     0.900000E-01   1.00800           0
     21741 MEMB     188      POPC     H4Y      HAL2     0.900000E-01   1.00800           0
     21742 MEMB     188      POPC     C35      CTL2    -0.180000       12.0110           0
     21743 MEMB     188      POPC     H5X      HAL2     0.900000E-01   1.00800           0
     21744 MEMB     188      POPC     H5Y      HAL2     0.900000E-01   1.00800           0
     21745 MEMB     188      POPC     C36      CTL2    -0.180000       12.0110           0
     21746 MEMB     188      POPC     H6X      HAL2     0.900000E-01   1.00800           0
     21747 MEMB     188      POPC     H6Y      HAL2     0.900000E-01   1.00800           0
     21748 MEMB     188      POPC     C37      CTL2    -0.180000       12.0110           0
     21749 MEMB     188      POPC     H7X      HAL2     0.900000E-01   1.00800           0
     21750 MEMB     188      POPC     H7Y      HAL2     0.900000E-01   1.00800           0
     21751 MEMB     188      POPC     C38      CTL2    -0.180000       12.0110           0
     21752 MEMB     188      POPC     H8X      HAL2     0.900000E-01   1.00800           0
     21753 MEMB     188      POPC     H8Y      HAL2     0.900000E-01   1.00800           0
     21754 MEMB     188      POPC     C39      CTL2    -0.180000       12.0110           0
     21755 MEMB     188      POPC     H9X      HAL2     0.900000E-01   1.00800           0
     21756 MEMB     188      POPC     H9Y      HAL2     0.900000E-01   1.00800           0
     21757 MEMB     188      POPC     C310     CTL2    -0.180000       12.0110           0
     21758 MEMB     188      POPC     H10X     HAL2     0.900000E-01   1.00800           0
     21759 MEMB     188      POPC     H10Y     HAL2     0.900000E-01   1.00800           0
     21760 MEMB     188      POPC     C311     CTL2    -0.180000       12.0110           0
     21761 MEMB     188      POPC     H11X     HAL2     0.900000E-01   1.00800           0
     21762 MEMB     188      POPC     H11Y     HAL2     0.900000E-01   1.00800           0
     21763 MEMB     188      POPC     C312     CTL2    -0.180000       12.0110           0
     21764 MEMB     188      POPC     H12X     HAL2     0.900000E-01   1.00800           0
     21765 MEMB     188      POPC     H12Y     HAL2     0.900000E-01   1.00800           0
     21766 MEMB     188      POPC     C313     CTL2    -0.180000       12.0110           0
     21767 MEMB     188      POPC     H13X     HAL2     0.900000E-01   1.00800           0
     21768 MEMB     188      POPC     H13Y     HAL2     0.900000E-01   1.00800           0
     21769 MEMB     188      POPC     C314     CTL2    -0.180000       12.0110           0
     21770 MEMB     188      POPC     H14X     HAL2     0.900000E-01   1.00800           0
     21771 MEMB     188      POPC     H14Y     HAL2     0.900000E-01   1.00800           0
     21772 MEMB     188      POPC     C315     CTL2    -0.180000       12.0110           0
     21773 MEMB     188      POPC     H15X     HAL2     0.900000E-01   1.00800           0
     21774 MEMB     188      POPC     H15Y     HAL2     0.900000E-01   1.00800           0
     21775 MEMB     188      POPC     C316     CTL3    -0.270000       12.0110           0
     21776 MEMB     188      POPC     H16X     HAL3     0.900000E-01   1.00800           0
     21777 MEMB     188      POPC     H16Y     HAL3     0.900000E-01   1.00800           0
     21778 MEMB     188      POPC     H16Z     HAL3     0.900000E-01   1.00800           0
     21779 MEMB     189      SAPE     N        NH3L    -0.300000       14.0070           0
     21780 MEMB     189      SAPE     HN1      HCL      0.330000       1.00800           0
     21781 MEMB     189      SAPE     HN2      HCL      0.330000       1.00800           0
     21782 MEMB     189      SAPE     HN3      HCL      0.330000       1.00800           0
     21783 MEMB     189      SAPE     C12      CTL2     0.130000       12.0110           0
     21784 MEMB     189      SAPE     H12A     HAL2     0.900000E-01   1.00800           0
     21785 MEMB     189      SAPE     H12B     HAL2     0.900000E-01   1.00800           0
     21786 MEMB     189      SAPE     C11      CTL2    -0.800000E-01   12.0110           0
     21787 MEMB     189      SAPE     H11A     HAL2     0.900000E-01   1.00800           0
     21788 MEMB     189      SAPE     H11B     HAL2     0.900000E-01   1.00800           0
     21789 MEMB     189      SAPE     P        PL        1.50000       30.9740           0
     21790 MEMB     189      SAPE     O13      O2L     -0.780000       15.9994           0
     21791 MEMB     189      SAPE     O14      O2L     -0.780000       15.9994           0
     21792 MEMB     189      SAPE     O12      OSLP    -0.570000       15.9994           0
     21793 MEMB     189      SAPE     O11      OSLP    -0.570000       15.9994           0
     21794 MEMB     189      SAPE     C1       CTL2    -0.800000E-01   12.0110           0
     21795 MEMB     189      SAPE     HA       HAL2     0.900000E-01   1.00800           0
     21796 MEMB     189      SAPE     HB       HAL2     0.900000E-01   1.00800           0
     21797 MEMB     189      SAPE     C2       CTL1     0.170000       12.0110           0
     21798 MEMB     189      SAPE     HS       HAL1     0.900000E-01   1.00800           0
     21799 MEMB     189      SAPE     O21      OSL     -0.490000       15.9994           0
     21800 MEMB     189      SAPE     C21      CL       0.900000       12.0110           0
     21801 MEMB     189      SAPE     O22      OBL     -0.630000       15.9994           0
     21802 MEMB     189      SAPE     C22      CTL2    -0.220000       12.0110           0
     21803 MEMB     189      SAPE     H2R      HAL2     0.900000E-01   1.00800           0
     21804 MEMB     189      SAPE     H2S      HAL2     0.900000E-01   1.00800           0
     21805 MEMB     189      SAPE     C3       CTL2     0.800000E-01   12.0110           0
     21806 MEMB     189      SAPE     HX       HAL2     0.900000E-01   1.00800           0
     21807 MEMB     189      SAPE     HY       HAL2     0.900000E-01   1.00800           0
     21808 MEMB     189      SAPE     O31      OSL     -0.490000       15.9994           0
     21809 MEMB     189      SAPE     C31      CL       0.900000       12.0110           0
     21810 MEMB     189      SAPE     O32      OBL     -0.630000       15.9994           0
     21811 MEMB     189      SAPE     C32      CTL2    -0.220000       12.0110           0
     21812 MEMB     189      SAPE     H2X      HAL2     0.900000E-01   1.00800           0
     21813 MEMB     189      SAPE     H2Y      HAL2     0.900000E-01   1.00800           0
     21814 MEMB     189      SAPE     C23      CTL2    -0.180000       12.0110           0
     21815 MEMB     189      SAPE     H3R      HAL2     0.900000E-01   1.00800           0
     21816 MEMB     189      SAPE     H3S      HAL2     0.900000E-01   1.00800           0
     21817 MEMB     189      SAPE     C24      CTL2    -0.180000       12.0110           0
     21818 MEMB     189      SAPE     H4R      HAL2     0.900000E-01   1.00800           0
     21819 MEMB     189      SAPE     H4S      HAL2     0.900000E-01   1.00800           0
     21820 MEMB     189      SAPE     C25      CEL1    -0.150000       12.0110           0
     21821 MEMB     189      SAPE     H5R      HEL1     0.150000       1.00800           0
     21822 MEMB     189      SAPE     C26      CEL1    -0.150000       12.0110           0
     21823 MEMB     189      SAPE     H6R      HEL1     0.150000       1.00800           0
     21824 MEMB     189      SAPE     C27      CTL2    -0.180000       12.0110           0
     21825 MEMB     189      SAPE     H7R      HAL2     0.900000E-01   1.00800           0
     21826 MEMB     189      SAPE     H7S      HAL2     0.900000E-01   1.00800           0
     21827 MEMB     189      SAPE     C28      CEL1    -0.150000       12.0110           0
     21828 MEMB     189      SAPE     H8R      HEL1     0.150000       1.00800           0
     21829 MEMB     189      SAPE     C29      CEL1    -0.150000       12.0110           0
     21830 MEMB     189      SAPE     H9R      HEL1     0.150000       1.00800           0
     21831 MEMB     189      SAPE     C210     CTL2    -0.180000       12.0110           0
     21832 MEMB     189      SAPE     H10R     HAL2     0.900000E-01   1.00800           0
     21833 MEMB     189      SAPE     H10S     HAL2     0.900000E-01   1.00800           0
     21834 MEMB     189      SAPE     C211     CEL1    -0.150000       12.0110           0
     21835 MEMB     189      SAPE     H11R     HEL1     0.150000       1.00800           0
     21836 MEMB     189      SAPE     C212     CEL1    -0.150000       12.0110           0
     21837 MEMB     189      SAPE     H12R     HEL1     0.150000       1.00800           0
     21838 MEMB     189      SAPE     C213     CTL2    -0.180000       12.0110           0
     21839 MEMB     189      SAPE     H13R     HAL2     0.900000E-01   1.00800           0
     21840 MEMB     189      SAPE     H13S     HAL2     0.900000E-01   1.00800           0
     21841 MEMB     189      SAPE     C214     CEL1    -0.150000       12.0110           0
     21842 MEMB     189      SAPE     H14R     HEL1     0.150000       1.00800           0
     21843 MEMB     189      SAPE     C215     CEL1    -0.150000       12.0110           0
     21844 MEMB     189      SAPE     H15R     HEL1     0.150000       1.00800           0
     21845 MEMB     189      SAPE     C216     CTL2    -0.180000       12.0110           0
     21846 MEMB     189      SAPE     H16R     HAL2     0.900000E-01   1.00800           0
     21847 MEMB     189      SAPE     H16S     HAL2     0.900000E-01   1.00800           0
     21848 MEMB     189      SAPE     C217     CTL2    -0.180000       12.0110           0
     21849 MEMB     189      SAPE     H17R     HAL2     0.900000E-01   1.00800           0
     21850 MEMB     189      SAPE     H17S     HAL2     0.900000E-01   1.00800           0
     21851 MEMB     189      SAPE     C218     CTL2    -0.180000       12.0110           0
     21852 MEMB     189      SAPE     H18R     HAL2     0.900000E-01   1.00800           0
     21853 MEMB     189      SAPE     H18S     HAL2     0.900000E-01   1.00800           0
     21854 MEMB     189      SAPE     C219     CTL2    -0.180000       12.0110           0
     21855 MEMB     189      SAPE     H19R     HAL2     0.900000E-01   1.00800           0
     21856 MEMB     189      SAPE     H19S     HAL2     0.900000E-01   1.00800           0
     21857 MEMB     189      SAPE     C220     CTL3    -0.270000       12.0110           0
     21858 MEMB     189      SAPE     H20R     HAL3     0.900000E-01   1.00800           0
     21859 MEMB     189      SAPE     H20S     HAL3     0.900000E-01   1.00800           0
     21860 MEMB     189      SAPE     H20T     HAL3     0.900000E-01   1.00800           0
     21861 MEMB     189      SAPE     C33      CTL2    -0.180000       12.0110           0
     21862 MEMB     189      SAPE     H3X      HAL2     0.900000E-01   1.00800           0
     21863 MEMB     189      SAPE     H3Y      HAL2     0.900000E-01   1.00800           0
     21864 MEMB     189      SAPE     C34      CTL2    -0.180000       12.0110           0
     21865 MEMB     189      SAPE     H4X      HAL2     0.900000E-01   1.00800           0
     21866 MEMB     189      SAPE     H4Y      HAL2     0.900000E-01   1.00800           0
     21867 MEMB     189      SAPE     C35      CTL2    -0.180000       12.0110           0
     21868 MEMB     189      SAPE     H5X      HAL2     0.900000E-01   1.00800           0
     21869 MEMB     189      SAPE     H5Y      HAL2     0.900000E-01   1.00800           0
     21870 MEMB     189      SAPE     C36      CTL2    -0.180000       12.0110           0
     21871 MEMB     189      SAPE     H6X      HAL2     0.900000E-01   1.00800           0
     21872 MEMB     189      SAPE     H6Y      HAL2     0.900000E-01   1.00800           0
     21873 MEMB     189      SAPE     C37      CTL2    -0.180000       12.0110           0
     21874 MEMB     189      SAPE     H7X      HAL2     0.900000E-01   1.00800           0
     21875 MEMB     189      SAPE     H7Y      HAL2     0.900000E-01   1.00800           0
     21876 MEMB     189      SAPE     C38      CTL2    -0.180000       12.0110           0
     21877 MEMB     189      SAPE     H8X      HAL2     0.900000E-01   1.00800           0
     21878 MEMB     189      SAPE     H8Y      HAL2     0.900000E-01   1.00800           0
     21879 MEMB     189      SAPE     C39      CTL2    -0.180000       12.0110           0
     21880 MEMB     189      SAPE     H9X      HAL2     0.900000E-01   1.00800           0
     21881 MEMB     189      SAPE     H9Y      HAL2     0.900000E-01   1.00800           0
     21882 MEMB     189      SAPE     C310     CTL2    -0.180000       12.0110           0
     21883 MEMB     189      SAPE     H10X     HAL2     0.900000E-01   1.00800           0
     21884 MEMB     189      SAPE     H10Y     HAL2     0.900000E-01   1.00800           0
     21885 MEMB     189      SAPE     C311     CTL2    -0.180000       12.0110           0
     21886 MEMB     189      SAPE     H11X     HAL2     0.900000E-01   1.00800           0
     21887 MEMB     189      SAPE     H11Y     HAL2     0.900000E-01   1.00800           0
     21888 MEMB     189      SAPE     C312     CTL2    -0.180000       12.0110           0
     21889 MEMB     189      SAPE     H12X     HAL2     0.900000E-01   1.00800           0
     21890 MEMB     189      SAPE     H12Y     HAL2     0.900000E-01   1.00800           0
     21891 MEMB     189      SAPE     C313     CTL2    -0.180000       12.0110           0
     21892 MEMB     189      SAPE     H13X     HAL2     0.900000E-01   1.00800           0
     21893 MEMB     189      SAPE     H13Y     HAL2     0.900000E-01   1.00800           0
     21894 MEMB     189      SAPE     C314     CTL2    -0.180000       12.0110           0
     21895 MEMB     189      SAPE     H14X     HAL2     0.900000E-01   1.00800           0
     21896 MEMB     189      SAPE     H14Y     HAL2     0.900000E-01   1.00800           0
     21897 MEMB     189      SAPE     C315     CTL2    -0.180000       12.0110           0
     21898 MEMB     189      SAPE     H15X     HAL2     0.900000E-01   1.00800           0
     21899 MEMB     189      SAPE     H15Y     HAL2     0.900000E-01   1.00800           0
     21900 MEMB     189      SAPE     C316     CTL2    -0.180000       12.0110           0
     21901 MEMB     189      SAPE     H16X     HAL2     0.900000E-01   1.00800           0
     21902 MEMB     189      SAPE     H16Y     HAL2     0.900000E-01   1.00800           0
     21903 MEMB     189      SAPE     C317     CTL2    -0.180000       12.0110           0
     21904 MEMB     189      SAPE     H17X     HAL2     0.900000E-01   1.00800           0
     21905 MEMB     189      SAPE     H17Y     HAL2     0.900000E-01   1.00800           0
     21906 MEMB     189      SAPE     C318     CTL3    -0.270000       12.0110           0
     21907 MEMB     189      SAPE     H18X     HAL3     0.900000E-01   1.00800           0
     21908 MEMB     189      SAPE     H18Y     HAL3     0.900000E-01   1.00800           0
     21909 MEMB     189      SAPE     H18Z     HAL3     0.900000E-01   1.00800           0
     21910 MEMB     190      SAPC     N        NTL     -0.600000       14.0070           0
     21911 MEMB     190      SAPC     C12      CTL2    -0.100000       12.0110           0
     21912 MEMB     190      SAPC     H12A     HL       0.250000       1.00800           0
     21913 MEMB     190      SAPC     H12B     HL       0.250000       1.00800           0
     21914 MEMB     190      SAPC     C13      CTL5    -0.350000       12.0110           0
     21915 MEMB     190      SAPC     H13A     HL       0.250000       1.00800           0
     21916 MEMB     190      SAPC     H13B     HL       0.250000       1.00800           0
     21917 MEMB     190      SAPC     H13C     HL       0.250000       1.00800           0
     21918 MEMB     190      SAPC     C14      CTL5    -0.350000       12.0110           0
     21919 MEMB     190      SAPC     H14A     HL       0.250000       1.00800           0
     21920 MEMB     190      SAPC     H14B     HL       0.250000       1.00800           0
     21921 MEMB     190      SAPC     H14C     HL       0.250000       1.00800           0
     21922 MEMB     190      SAPC     C15      CTL5    -0.350000       12.0110           0
     21923 MEMB     190      SAPC     H15A     HL       0.250000       1.00800           0
     21924 MEMB     190      SAPC     H15B     HL       0.250000       1.00800           0
     21925 MEMB     190      SAPC     H15C     HL       0.250000       1.00800           0
     21926 MEMB     190      SAPC     C11      CTL2    -0.800000E-01   12.0110           0
     21927 MEMB     190      SAPC     H11A     HAL2     0.900000E-01   1.00800           0
     21928 MEMB     190      SAPC     H11B     HAL2     0.900000E-01   1.00800           0
     21929 MEMB     190      SAPC     P        PL        1.50000       30.9740           0
     21930 MEMB     190      SAPC     O13      O2L     -0.780000       15.9994           0
     21931 MEMB     190      SAPC     O14      O2L     -0.780000       15.9994           0
     21932 MEMB     190      SAPC     O12      OSLP    -0.570000       15.9994           0
     21933 MEMB     190      SAPC     O11      OSLP    -0.570000       15.9994           0
     21934 MEMB     190      SAPC     C1       CTL2    -0.800000E-01   12.0110           0
     21935 MEMB     190      SAPC     HA       HAL2     0.900000E-01   1.00800           0
     21936 MEMB     190      SAPC     HB       HAL2     0.900000E-01   1.00800           0
     21937 MEMB     190      SAPC     C2       CTL1     0.170000       12.0110           0
     21938 MEMB     190      SAPC     HS       HAL1     0.900000E-01   1.00800           0
     21939 MEMB     190      SAPC     O21      OSL     -0.490000       15.9994           0
     21940 MEMB     190      SAPC     C21      CL       0.900000       12.0110           0
     21941 MEMB     190      SAPC     O22      OBL     -0.630000       15.9994           0
     21942 MEMB     190      SAPC     C22      CTL2    -0.220000       12.0110           0
     21943 MEMB     190      SAPC     H2R      HAL2     0.900000E-01   1.00800           0
     21944 MEMB     190      SAPC     H2S      HAL2     0.900000E-01   1.00800           0
     21945 MEMB     190      SAPC     C3       CTL2     0.800000E-01   12.0110           0
     21946 MEMB     190      SAPC     HX       HAL2     0.900000E-01   1.00800           0
     21947 MEMB     190      SAPC     HY       HAL2     0.900000E-01   1.00800           0
     21948 MEMB     190      SAPC     O31      OSL     -0.490000       15.9994           0
     21949 MEMB     190      SAPC     C31      CL       0.900000       12.0110           0
     21950 MEMB     190      SAPC     O32      OBL     -0.630000       15.9994           0
     21951 MEMB     190      SAPC     C32      CTL2    -0.220000       12.0110           0
     21952 MEMB     190      SAPC     H2X      HAL2     0.900000E-01   1.00800           0
     21953 MEMB     190      SAPC     H2Y      HAL2     0.900000E-01   1.00800           0
     21954 MEMB     190      SAPC     C23      CTL2    -0.180000       12.0110           0
     21955 MEMB     190      SAPC     H3R      HAL2     0.900000E-01   1.00800           0
     21956 MEMB     190      SAPC     H3S      HAL2     0.900000E-01   1.00800           0
     21957 MEMB     190      SAPC     C24      CTL2    -0.180000       12.0110           0
     21958 MEMB     190      SAPC     H4R      HAL2     0.900000E-01   1.00800           0
     21959 MEMB     190      SAPC     H4S      HAL2     0.900000E-01   1.00800           0
     21960 MEMB     190      SAPC     C25      CEL1    -0.150000       12.0110           0
     21961 MEMB     190      SAPC     H5R      HEL1     0.150000       1.00800           0
     21962 MEMB     190      SAPC     C26      CEL1    -0.150000       12.0110           0
     21963 MEMB     190      SAPC     H6R      HEL1     0.150000       1.00800           0
     21964 MEMB     190      SAPC     C27      CTL2    -0.180000       12.0110           0
     21965 MEMB     190      SAPC     H7R      HAL2     0.900000E-01   1.00800           0
     21966 MEMB     190      SAPC     H7S      HAL2     0.900000E-01   1.00800           0
     21967 MEMB     190      SAPC     C28      CEL1    -0.150000       12.0110           0
     21968 MEMB     190      SAPC     H8R      HEL1     0.150000       1.00800           0
     21969 MEMB     190      SAPC     C29      CEL1    -0.150000       12.0110           0
     21970 MEMB     190      SAPC     H9R      HEL1     0.150000       1.00800           0
     21971 MEMB     190      SAPC     C210     CTL2    -0.180000       12.0110           0
     21972 MEMB     190      SAPC     H10R     HAL2     0.900000E-01   1.00800           0
     21973 MEMB     190      SAPC     H10S     HAL2     0.900000E-01   1.00800           0
     21974 MEMB     190      SAPC     C211     CEL1    -0.150000       12.0110           0
     21975 MEMB     190      SAPC     H11R     HEL1     0.150000       1.00800           0
     21976 MEMB     190      SAPC     C212     CEL1    -0.150000       12.0110           0
     21977 MEMB     190      SAPC     H12R     HEL1     0.150000       1.00800           0
     21978 MEMB     190      SAPC     C213     CTL2    -0.180000       12.0110           0
     21979 MEMB     190      SAPC     H13R     HAL2     0.900000E-01   1.00800           0
     21980 MEMB     190      SAPC     H13S     HAL2     0.900000E-01   1.00800           0
     21981 MEMB     190      SAPC     C214     CEL1    -0.150000       12.0110           0
     21982 MEMB     190      SAPC     H14R     HEL1     0.150000       1.00800           0
     21983 MEMB     190      SAPC     C215     CEL1    -0.150000       12.0110           0
     21984 MEMB     190      SAPC     H15R     HEL1     0.150000       1.00800           0
     21985 MEMB     190      SAPC     C216     CTL2    -0.180000       12.0110           0
     21986 MEMB     190      SAPC     H16R     HAL2     0.900000E-01   1.00800           0
     21987 MEMB     190      SAPC     H16S     HAL2     0.900000E-01   1.00800           0
     21988 MEMB     190      SAPC     C217     CTL2    -0.180000       12.0110           0
     21989 MEMB     190      SAPC     H17R     HAL2     0.900000E-01   1.00800           0
     21990 MEMB     190      SAPC     H17S     HAL2     0.900000E-01   1.00800           0
     21991 MEMB     190      SAPC     C218     CTL2    -0.270000       12.0110           0
     21992 MEMB     190      SAPC     H18R     HAL2     0.900000E-01   1.00800           0
     21993 MEMB     190      SAPC     H18S     HAL2     0.900000E-01   1.00800           0
     21994 MEMB     190      SAPC     C219     CTL2    -0.180000       12.0110           0
     21995 MEMB     190      SAPC     H19R     HAL2     0.900000E-01   1.00800           0
     21996 MEMB     190      SAPC     H19S     HAL2     0.900000E-01   1.00800           0
     21997 MEMB     190      SAPC     C220     CTL3    -0.180000       12.0110           0
     21998 MEMB     190      SAPC     H20R     HAL3     0.900000E-01   1.00800           0
     21999 MEMB     190      SAPC     H20S     HAL3     0.900000E-01   1.00800           0
     22000 MEMB     190      SAPC     H20T     HAL3     0.900000E-01   1.00800           0
     22001 MEMB     190      SAPC     C33      CTL2    -0.180000       12.0110           0
     22002 MEMB     190      SAPC     H3X      HAL2     0.900000E-01   1.00800           0
     22003 MEMB     190      SAPC     H3Y      HAL2     0.900000E-01   1.00800           0
     22004 MEMB     190      SAPC     C34      CTL2    -0.180000       12.0110           0
     22005 MEMB     190      SAPC     H4X      HAL2     0.900000E-01   1.00800           0
     22006 MEMB     190      SAPC     H4Y      HAL2     0.900000E-01   1.00800           0
     22007 MEMB     190      SAPC     C35      CTL2    -0.180000       12.0110           0
     22008 MEMB     190      SAPC     H5X      HAL2     0.900000E-01   1.00800           0
     22009 MEMB     190      SAPC     H5Y      HAL2     0.900000E-01   1.00800           0
     22010 MEMB     190      SAPC     C36      CTL2    -0.180000       12.0110           0
     22011 MEMB     190      SAPC     H6X      HAL2     0.900000E-01   1.00800           0
     22012 MEMB     190      SAPC     H6Y      HAL2     0.900000E-01   1.00800           0
     22013 MEMB     190      SAPC     C37      CTL2    -0.180000       12.0110           0
     22014 MEMB     190      SAPC     H7X      HAL2     0.900000E-01   1.00800           0
     22015 MEMB     190      SAPC     H7Y      HAL2     0.900000E-01   1.00800           0
     22016 MEMB     190      SAPC     C38      CTL2    -0.180000       12.0110           0
     22017 MEMB     190      SAPC     H8X      HAL2     0.900000E-01   1.00800           0
     22018 MEMB     190      SAPC     H8Y      HAL2     0.900000E-01   1.00800           0
     22019 MEMB     190      SAPC     C39      CTL2    -0.180000       12.0110           0
     22020 MEMB     190      SAPC     H9X      HAL2     0.900000E-01   1.00800           0
     22021 MEMB     190      SAPC     H9Y      HAL2     0.900000E-01   1.00800           0
     22022 MEMB     190      SAPC     C310     CTL2    -0.180000       12.0110           0
     22023 MEMB     190      SAPC     H10X     HAL2     0.900000E-01   1.00800           0
     22024 MEMB     190      SAPC     H10Y     HAL2     0.900000E-01   1.00800           0
     22025 MEMB     190      SAPC     C311     CTL2    -0.180000       12.0110           0
     22026 MEMB     190      SAPC     H11X     HAL2     0.900000E-01   1.00800           0
     22027 MEMB     190      SAPC     H11Y     HAL2     0.900000E-01   1.00800           0
     22028 MEMB     190      SAPC     C312     CTL2    -0.180000       12.0110           0
     22029 MEMB     190      SAPC     H12X     HAL2     0.900000E-01   1.00800           0
     22030 MEMB     190      SAPC     H12Y     HAL2     0.900000E-01   1.00800           0
     22031 MEMB     190      SAPC     C313     CTL2    -0.180000       12.0110           0
     22032 MEMB     190      SAPC     H13X     HAL2     0.900000E-01   1.00800           0
     22033 MEMB     190      SAPC     H13Y     HAL2     0.900000E-01   1.00800           0
     22034 MEMB     190      SAPC     C314     CTL2    -0.180000       12.0110           0
     22035 MEMB     190      SAPC     H14X     HAL2     0.900000E-01   1.00800           0
     22036 MEMB     190      SAPC     H14Y     HAL2     0.900000E-01   1.00800           0
     22037 MEMB     190      SAPC     C315     CTL2    -0.180000       12.0110           0
     22038 MEMB     190      SAPC     H15X     HAL2     0.900000E-01   1.00800           0
     22039 MEMB     190      SAPC     H15Y     HAL2     0.900000E-01   1.00800           0
     22040 MEMB     190      SAPC     C316     CTL2    -0.180000       12.0110           0
     22041 MEMB     190      SAPC     H16X     HAL2     0.900000E-01   1.00800           0
     22042 MEMB     190      SAPC     H16Y     HAL2     0.900000E-01   1.00800           0
     22043 MEMB     190      SAPC     C317     CTL2    -0.180000       12.0110           0
     22044 MEMB     190      SAPC     H17X     HAL2     0.900000E-01   1.00800           0
     22045 MEMB     190      SAPC     H17Y     HAL2     0.900000E-01   1.00800           0
     22046 MEMB     190      SAPC     C318     CTL3    -0.270000       12.0110           0
     22047 MEMB     190      SAPC     H18X     HAL3     0.900000E-01   1.00800           0
     22048 MEMB     190      SAPC     H18Y     HAL3     0.900000E-01   1.00800           0
     22049 MEMB     190      SAPC     H18Z     HAL3     0.900000E-01   1.00800           0
     22050 MEMB     191      SLPC     N        NTL     -0.600000       14.0070           0
     22051 MEMB     191      SLPC     C13      CTL5    -0.350000       12.0110           0
     22052 MEMB     191      SLPC     H13A     HL       0.250000       1.00800           0
     22053 MEMB     191      SLPC     H13B     HL       0.250000       1.00800           0
     22054 MEMB     191      SLPC     H13C     HL       0.250000       1.00800           0
     22055 MEMB     191      SLPC     C14      CTL5    -0.350000       12.0110           0
     22056 MEMB     191      SLPC     H14A     HL       0.250000       1.00800           0
     22057 MEMB     191      SLPC     H14B     HL       0.250000       1.00800           0
     22058 MEMB     191      SLPC     H14C     HL       0.250000       1.00800           0
     22059 MEMB     191      SLPC     C15      CTL5    -0.350000       12.0110           0
     22060 MEMB     191      SLPC     H15A     HL       0.250000       1.00800           0
     22061 MEMB     191      SLPC     H15B     HL       0.250000       1.00800           0
     22062 MEMB     191      SLPC     H15C     HL       0.250000       1.00800           0
     22063 MEMB     191      SLPC     C12      CTL2    -0.100000       12.0110           0
     22064 MEMB     191      SLPC     H12A     HL       0.250000       1.00800           0
     22065 MEMB     191      SLPC     H12B     HL       0.250000       1.00800           0
     22066 MEMB     191      SLPC     C11      CTL2    -0.800000E-01   12.0110           0
     22067 MEMB     191      SLPC     H11A     HAL2     0.900000E-01   1.00800           0
     22068 MEMB     191      SLPC     H11B     HAL2     0.900000E-01   1.00800           0
     22069 MEMB     191      SLPC     P        PL        1.50000       30.9740           0
     22070 MEMB     191      SLPC     O13      O2L     -0.780000       15.9994           0
     22071 MEMB     191      SLPC     O14      O2L     -0.780000       15.9994           0
     22072 MEMB     191      SLPC     O12      OSLP    -0.570000       15.9994           0
     22073 MEMB     191      SLPC     O11      OSLP    -0.570000       15.9994           0
     22074 MEMB     191      SLPC     C1       CTL2    -0.800000E-01   12.0110           0
     22075 MEMB     191      SLPC     HA       HAL2     0.900000E-01   1.00800           0
     22076 MEMB     191      SLPC     HB       HAL2     0.900000E-01   1.00800           0
     22077 MEMB     191      SLPC     C2       CTL1     0.170000       12.0110           0
     22078 MEMB     191      SLPC     HS       HAL1     0.900000E-01   1.00800           0
     22079 MEMB     191      SLPC     O21      OSL     -0.490000       15.9994           0
     22080 MEMB     191      SLPC     C21      CL       0.900000       12.0110           0
     22081 MEMB     191      SLPC     O22      OBL     -0.630000       15.9994           0
     22082 MEMB     191      SLPC     C22      CTL2    -0.220000       12.0110           0
     22083 MEMB     191      SLPC     H2R      HAL2     0.900000E-01   1.00800           0
     22084 MEMB     191      SLPC     H2S      HAL2     0.900000E-01   1.00800           0
     22085 MEMB     191      SLPC     C3       CTL2     0.800000E-01   12.0110           0
     22086 MEMB     191      SLPC     HX       HAL2     0.900000E-01   1.00800           0
     22087 MEMB     191      SLPC     HY       HAL2     0.900000E-01   1.00800           0
     22088 MEMB     191      SLPC     O31      OSL     -0.490000       15.9994           0
     22089 MEMB     191      SLPC     C31      CL       0.900000       12.0110           0
     22090 MEMB     191      SLPC     O32      OBL     -0.630000       15.9994           0
     22091 MEMB     191      SLPC     C32      CTL2    -0.220000       12.0110           0
     22092 MEMB     191      SLPC     H2X      HAL2     0.900000E-01   1.00800           0
     22093 MEMB     191      SLPC     H2Y      HAL2     0.900000E-01   1.00800           0
     22094 MEMB     191      SLPC     C23      CTL2    -0.180000       12.0110           0
     22095 MEMB     191      SLPC     H3R      HAL2     0.900000E-01   1.00800           0
     22096 MEMB     191      SLPC     H3S      HAL2     0.900000E-01   1.00800           0
     22097 MEMB     191      SLPC     C24      CTL2    -0.180000       12.0110           0
     22098 MEMB     191      SLPC     H4R      HAL2     0.900000E-01   1.00800           0
     22099 MEMB     191      SLPC     H4S      HAL2     0.900000E-01   1.00800           0
     22100 MEMB     191      SLPC     C25      CTL2    -0.180000       12.0110           0
     22101 MEMB     191      SLPC     H5R      HAL2     0.900000E-01   1.00800           0
     22102 MEMB     191      SLPC     H5S      HAL2     0.900000E-01   1.00800           0
     22103 MEMB     191      SLPC     C26      CTL2    -0.180000       12.0110           0
     22104 MEMB     191      SLPC     H6R      HAL2     0.900000E-01   1.00800           0
     22105 MEMB     191      SLPC     H6S      HAL2     0.900000E-01   1.00800           0
     22106 MEMB     191      SLPC     C27      CTL2    -0.180000       12.0110           0
     22107 MEMB     191      SLPC     H7R      HAL2     0.900000E-01   1.00800           0
     22108 MEMB     191      SLPC     H7S      HAL2     0.900000E-01   1.00800           0
     22109 MEMB     191      SLPC     C28      CTL2    -0.180000       12.0110           0
     22110 MEMB     191      SLPC     H8R      HAL2     0.900000E-01   1.00800           0
     22111 MEMB     191      SLPC     H8S      HAL2     0.900000E-01   1.00800           0
     22112 MEMB     191      SLPC     C29      CEL1    -0.150000       12.0110           0
     22113 MEMB     191      SLPC     H9R      HEL1     0.150000       1.00800           0
     22114 MEMB     191      SLPC     C210     CEL1    -0.150000       12.0110           0
     22115 MEMB     191      SLPC     H10R     HEL1     0.150000       1.00800           0
     22116 MEMB     191      SLPC     C211     CTL2    -0.180000       12.0110           0
     22117 MEMB     191      SLPC     H11R     HAL2     0.900000E-01   1.00800           0
     22118 MEMB     191      SLPC     H11S     HAL2     0.900000E-01   1.00800           0
     22119 MEMB     191      SLPC     C212     CEL1    -0.150000       12.0110           0
     22120 MEMB     191      SLPC     H12R     HEL1     0.150000       1.00800           0
     22121 MEMB     191      SLPC     C213     CEL1    -0.150000       12.0110           0
     22122 MEMB     191      SLPC     H13R     HEL1     0.150000       1.00800           0
     22123 MEMB     191      SLPC     C214     CTL2    -0.180000       12.0110           0
     22124 MEMB     191      SLPC     H14R     HAL2     0.900000E-01   1.00800           0
     22125 MEMB     191      SLPC     H14S     HAL2     0.900000E-01   1.00800           0
     22126 MEMB     191      SLPC     C215     CTL2    -0.180000       12.0110           0
     22127 MEMB     191      SLPC     H15R     HAL2     0.900000E-01   1.00800           0
     22128 MEMB     191      SLPC     H15S     HAL2     0.900000E-01   1.00800           0
     22129 MEMB     191      SLPC     C216     CTL2    -0.180000       12.0110           0
     22130 MEMB     191      SLPC     H16R     HAL2     0.900000E-01   1.00800           0
     22131 MEMB     191      SLPC     H16S     HAL2     0.900000E-01   1.00800           0
     22132 MEMB     191      SLPC     C217     CTL2    -0.180000       12.0110           0
     22133 MEMB     191      SLPC     H17R     HAL2     0.900000E-01   1.00800           0
     22134 MEMB     191      SLPC     H17S     HAL2     0.900000E-01   1.00800           0
     22135 MEMB     191      SLPC     C218     CTL3    -0.270000       12.0110           0
     22136 MEMB     191      SLPC     H18R     HAL3     0.900000E-01   1.00800           0
     22137 MEMB     191      SLPC     H18S     HAL3     0.900000E-01   1.00800           0
     22138 MEMB     191      SLPC     H18T     HAL3     0.900000E-01   1.00800           0
     22139 MEMB     191      SLPC     C33      CTL2    -0.180000       12.0110           0
     22140 MEMB     191      SLPC     H3X      HAL2     0.900000E-01   1.00800           0
     22141 MEMB     191      SLPC     H3Y      HAL2     0.900000E-01   1.00800           0
     22142 MEMB     191      SLPC     C34      CTL2    -0.180000       12.0110           0
     22143 MEMB     191      SLPC     H4X      HAL2     0.900000E-01   1.00800           0
     22144 MEMB     191      SLPC     H4Y      HAL2     0.900000E-01   1.00800           0
     22145 MEMB     191      SLPC     C35      CTL2    -0.180000       12.0110           0
     22146 MEMB     191      SLPC     H5X      HAL2     0.900000E-01   1.00800           0
     22147 MEMB     191      SLPC     H5Y      HAL2     0.900000E-01   1.00800           0
     22148 MEMB     191      SLPC     C36      CTL2    -0.180000       12.0110           0
     22149 MEMB     191      SLPC     H6X      HAL2     0.900000E-01   1.00800           0
     22150 MEMB     191      SLPC     H6Y      HAL2     0.900000E-01   1.00800           0
     22151 MEMB     191      SLPC     C37      CTL2    -0.180000       12.0110           0
     22152 MEMB     191      SLPC     H7X      HAL2     0.900000E-01   1.00800           0
     22153 MEMB     191      SLPC     H7Y      HAL2     0.900000E-01   1.00800           0
     22154 MEMB     191      SLPC     C38      CTL2    -0.180000       12.0110           0
     22155 MEMB     191      SLPC     H8X      HAL2     0.900000E-01   1.00800           0
     22156 MEMB     191      SLPC     H8Y      HAL2     0.900000E-01   1.00800           0
     22157 MEMB     191      SLPC     C39      CTL2    -0.180000       12.0110           0
     22158 MEMB     191      SLPC     H9X      HAL2     0.900000E-01   1.00800           0
     22159 MEMB     191      SLPC     H9Y      HAL2     0.900000E-01   1.00800           0
     22160 MEMB     191      SLPC     C310     CTL2    -0.180000       12.0110           0
     22161 MEMB     191      SLPC     H10X     HAL2     0.900000E-01   1.00800           0
     22162 MEMB     191      SLPC     H10Y     HAL2     0.900000E-01   1.00800           0
     22163 MEMB     191      SLPC     C311     CTL2    -0.180000       12.0110           0
     22164 MEMB     191      SLPC     H11X     HAL2     0.900000E-01   1.00800           0
     22165 MEMB     191      SLPC     H11Y     HAL2     0.900000E-01   1.00800           0
     22166 MEMB     191      SLPC     C312     CTL2    -0.180000       12.0110           0
     22167 MEMB     191      SLPC     H12X     HAL2     0.900000E-01   1.00800           0
     22168 MEMB     191      SLPC     H12Y     HAL2     0.900000E-01   1.00800           0
     22169 MEMB     191      SLPC     C313     CTL2    -0.180000       12.0110           0
     22170 MEMB     191      SLPC     H13X     HAL2     0.900000E-01   1.00800           0
     22171 MEMB     191      SLPC     H13Y     HAL2     0.900000E-01   1.00800           0
     22172 MEMB     191      SLPC     C314     CTL2    -0.180000       12.0110           0
     22173 MEMB     191      SLPC     H14X     HAL2     0.900000E-01   1.00800           0
     22174 MEMB     191      SLPC     H14Y     HAL2     0.900000E-01   1.00800           0
     22175 MEMB     191      SLPC     C315     CTL2    -0.180000       12.0110           0
     22176 MEMB     191      SLPC     H15X     HAL2     0.900000E-01   1.00800           0
     22177 MEMB     191      SLPC     H15Y     HAL2     0.900000E-01   1.00800           0
     22178 MEMB     191      SLPC     C316     CTL2    -0.180000       12.0110           0
     22179 MEMB     191      SLPC     H16X     HAL2     0.900000E-01   1.00800           0
     22180 MEMB     191      SLPC     H16Y     HAL2     0.900000E-01   1.00800           0
     22181 MEMB     191      SLPC     C317     CTL2    -0.180000       12.0110           0
     22182 MEMB     191      SLPC     H17X     HAL2     0.900000E-01   1.00800           0
     22183 MEMB     191      SLPC     H17Y     HAL2     0.900000E-01   1.00800           0
     22184 MEMB     191      SLPC     C318     CTL3    -0.270000       12.0110           0
     22185 MEMB     191      SLPC     H18X     HAL3     0.900000E-01   1.00800           0
     22186 MEMB     191      SLPC     H18Y     HAL3     0.900000E-01   1.00800           0
     22187 MEMB     191      SLPC     H18Z     HAL3     0.900000E-01   1.00800           0
     22188 MEMB     192      SAPS     N        NH3L    -0.300000       14.0070           0
     22189 MEMB     192      SAPS     HN1      HCL      0.330000       1.00800           0
     22190 MEMB     192      SAPS     HN2      HCL      0.330000       1.00800           0
     22191 MEMB     192      SAPS     HN3      HCL      0.330000       1.00800           0
     22192 MEMB     192      SAPS     C12      CTL1     0.210000       12.0110           0
     22193 MEMB     192      SAPS     H12A     HBL      0.100000       1.00800           0
     22194 MEMB     192      SAPS     C13      CCL      0.340000       12.0110           0
     22195 MEMB     192      SAPS     O13A     OCL     -0.670000       15.9994           0
     22196 MEMB     192      SAPS     O13B     OCL     -0.670000       15.9994           0
     22197 MEMB     192      SAPS     C11      CTL2    -0.800000E-01   12.0110           0
     22198 MEMB     192      SAPS     H11A     HAL2     0.900000E-01   1.00800           0
     22199 MEMB     192      SAPS     H11B     HAL2     0.900000E-01   1.00800           0
     22200 MEMB     192      SAPS     P        PL        1.50000       30.9740           0
     22201 MEMB     192      SAPS     O13      O2L     -0.780000       15.9994           0
     22202 MEMB     192      SAPS     O14      O2L     -0.780000       15.9994           0
     22203 MEMB     192      SAPS     O12      OSLP    -0.570000       15.9994           0
     22204 MEMB     192      SAPS     O11      OSLP    -0.570000       15.9994           0
     22205 MEMB     192      SAPS     C1       CTL2    -0.800000E-01   12.0110           0
     22206 MEMB     192      SAPS     HA       HAL2     0.900000E-01   1.00800           0
     22207 MEMB     192      SAPS     HB       HAL2     0.900000E-01   1.00800           0
     22208 MEMB     192      SAPS     C2       CTL1     0.170000       12.0110           0
     22209 MEMB     192      SAPS     HS       HAL1     0.900000E-01   1.00800           0
     22210 MEMB     192      SAPS     O21      OSL     -0.490000       15.9994           0
     22211 MEMB     192      SAPS     C21      CL       0.900000       12.0110           0
     22212 MEMB     192      SAPS     O22      OBL     -0.630000       15.9994           0
     22213 MEMB     192      SAPS     C22      CTL2    -0.220000       12.0110           0
     22214 MEMB     192      SAPS     H2R      HAL2     0.900000E-01   1.00800           0
     22215 MEMB     192      SAPS     H2S      HAL2     0.900000E-01   1.00800           0
     22216 MEMB     192      SAPS     C3       CTL2     0.800000E-01   12.0110           0
     22217 MEMB     192      SAPS     HX       HAL2     0.900000E-01   1.00800           0
     22218 MEMB     192      SAPS     HY       HAL2     0.900000E-01   1.00800           0
     22219 MEMB     192      SAPS     O31      OSL     -0.490000       15.9994           0
     22220 MEMB     192      SAPS     C31      CL       0.900000       12.0110           0
     22221 MEMB     192      SAPS     O32      OBL     -0.630000       15.9994           0
     22222 MEMB     192      SAPS     C32      CTL2    -0.220000       12.0110           0
     22223 MEMB     192      SAPS     H2X      HAL2     0.900000E-01   1.00800           0
     22224 MEMB     192      SAPS     H2Y      HAL2     0.900000E-01   1.00800           0
     22225 MEMB     192      SAPS     C23      CTL2    -0.180000       12.0110           0
     22226 MEMB     192      SAPS     H3R      HAL2     0.900000E-01   1.00800           0
     22227 MEMB     192      SAPS     H3S      HAL2     0.900000E-01   1.00800           0
     22228 MEMB     192      SAPS     C24      CTL2    -0.180000       12.0110           0
     22229 MEMB     192      SAPS     H4R      HAL2     0.900000E-01   1.00800           0
     22230 MEMB     192      SAPS     H4S      HAL2     0.900000E-01   1.00800           0
     22231 MEMB     192      SAPS     C25      CEL1    -0.150000       12.0110           0
     22232 MEMB     192      SAPS     H5R      HEL1     0.150000       1.00800           0
     22233 MEMB     192      SAPS     C26      CEL1    -0.150000       12.0110           0
     22234 MEMB     192      SAPS     H6R      HEL1     0.150000       1.00800           0
     22235 MEMB     192      SAPS     C27      CTL2    -0.180000       12.0110           0
     22236 MEMB     192      SAPS     H7R      HAL2     0.900000E-01   1.00800           0
     22237 MEMB     192      SAPS     H7S      HAL2     0.900000E-01   1.00800           0
     22238 MEMB     192      SAPS     C28      CEL1    -0.150000       12.0110           0
     22239 MEMB     192      SAPS     H8R      HEL1     0.150000       1.00800           0
     22240 MEMB     192      SAPS     C29      CEL1    -0.150000       12.0110           0
     22241 MEMB     192      SAPS     H9R      HEL1     0.150000       1.00800           0
     22242 MEMB     192      SAPS     C210     CTL2    -0.180000       12.0110           0
     22243 MEMB     192      SAPS     H10R     HAL2     0.900000E-01   1.00800           0
     22244 MEMB     192      SAPS     H10S     HAL2     0.900000E-01   1.00800           0
     22245 MEMB     192      SAPS     C211     CEL1    -0.150000       12.0110           0
     22246 MEMB     192      SAPS     H11R     HEL1     0.150000       1.00800           0
     22247 MEMB     192      SAPS     C212     CEL1    -0.150000       12.0110           0
     22248 MEMB     192      SAPS     H12R     HEL1     0.150000       1.00800           0
     22249 MEMB     192      SAPS     C213     CTL2    -0.180000       12.0110           0
     22250 MEMB     192      SAPS     H13R     HAL2     0.900000E-01   1.00800           0
     22251 MEMB     192      SAPS     H13S     HAL2     0.900000E-01   1.00800           0
     22252 MEMB     192      SAPS     C214     CEL1    -0.150000       12.0110           0
     22253 MEMB     192      SAPS     H14R     HEL1     0.150000       1.00800           0
     22254 MEMB     192      SAPS     C215     CEL1    -0.150000       12.0110           0
     22255 MEMB     192      SAPS     H15R     HEL1     0.150000       1.00800           0
     22256 MEMB     192      SAPS     C216     CTL2    -0.180000       12.0110           0
     22257 MEMB     192      SAPS     H16R     HAL2     0.900000E-01   1.00800           0
     22258 MEMB     192      SAPS     H16S     HAL2     0.900000E-01   1.00800           0
     22259 MEMB     192      SAPS     C217     CTL2    -0.180000       12.0110           0
     22260 MEMB     192      SAPS     H17R     HAL2     0.900000E-01   1.00800           0
     22261 MEMB     192      SAPS     H17S     HAL2     0.900000E-01   1.00800           0
     22262 MEMB     192      SAPS     C218     CTL2    -0.180000       12.0110           0
     22263 MEMB     192      SAPS     H18R     HAL2     0.900000E-01   1.00800           0
     22264 MEMB     192      SAPS     H18S     HAL2     0.900000E-01   1.00800           0
     22265 MEMB     192      SAPS     C219     CTL2    -0.180000       12.0110           0
     22266 MEMB     192      SAPS     H19R     HAL2     0.900000E-01   1.00800           0
     22267 MEMB     192      SAPS     H19S     HAL2     0.900000E-01   1.00800           0
     22268 MEMB     192      SAPS     C220     CTL3    -0.270000       12.0110           0
     22269 MEMB     192      SAPS     H20R     HAL3     0.900000E-01   1.00800           0
     22270 MEMB     192      SAPS     H20S     HAL3     0.900000E-01   1.00800           0
     22271 MEMB     192      SAPS     H20T     HAL3     0.900000E-01   1.00800           0
     22272 MEMB     192      SAPS     C33      CTL2    -0.180000       12.0110           0
     22273 MEMB     192      SAPS     H3X      HAL2     0.900000E-01   1.00800           0
     22274 MEMB     192      SAPS     H3Y      HAL2     0.900000E-01   1.00800           0
     22275 MEMB     192      SAPS     C34      CTL2    -0.180000       12.0110           0
     22276 MEMB     192      SAPS     H4X      HAL2     0.900000E-01   1.00800           0
     22277 MEMB     192      SAPS     H4Y      HAL2     0.900000E-01   1.00800           0
     22278 MEMB     192      SAPS     C35      CTL2    -0.180000       12.0110           0
     22279 MEMB     192      SAPS     H5X      HAL2     0.900000E-01   1.00800           0
     22280 MEMB     192      SAPS     H5Y      HAL2     0.900000E-01   1.00800           0
     22281 MEMB     192      SAPS     C36      CTL2    -0.180000       12.0110           0
     22282 MEMB     192      SAPS     H6X      HAL2     0.900000E-01   1.00800           0
     22283 MEMB     192      SAPS     H6Y      HAL2     0.900000E-01   1.00800           0
     22284 MEMB     192      SAPS     C37      CTL2    -0.180000       12.0110           0
     22285 MEMB     192      SAPS     H7X      HAL2     0.900000E-01   1.00800           0
     22286 MEMB     192      SAPS     H7Y      HAL2     0.900000E-01   1.00800           0
     22287 MEMB     192      SAPS     C38      CTL2    -0.180000       12.0110           0
     22288 MEMB     192      SAPS     H8X      HAL2     0.900000E-01   1.00800           0
     22289 MEMB     192      SAPS     H8Y      HAL2     0.900000E-01   1.00800           0
     22290 MEMB     192      SAPS     C39      CTL2    -0.180000       12.0110           0
     22291 MEMB     192      SAPS     H9X      HAL2     0.900000E-01   1.00800           0
     22292 MEMB     192      SAPS     H9Y      HAL2     0.900000E-01   1.00800           0
     22293 MEMB     192      SAPS     C310     CTL2    -0.180000       12.0110           0
     22294 MEMB     192      SAPS     H10X     HAL2     0.900000E-01   1.00800           0
     22295 MEMB     192      SAPS     H10Y     HAL2     0.900000E-01   1.00800           0
     22296 MEMB     192      SAPS     C311     CTL2    -0.180000       12.0110           0
     22297 MEMB     192      SAPS     H11X     HAL2     0.900000E-01   1.00800           0
     22298 MEMB     192      SAPS     H11Y     HAL2     0.900000E-01   1.00800           0
     22299 MEMB     192      SAPS     C312     CTL2    -0.180000       12.0110           0
     22300 MEMB     192      SAPS     H12X     HAL2     0.900000E-01   1.00800           0
     22301 MEMB     192      SAPS     H12Y     HAL2     0.900000E-01   1.00800           0
     22302 MEMB     192      SAPS     C313     CTL2    -0.180000       12.0110           0
     22303 MEMB     192      SAPS     H13X     HAL2     0.900000E-01   1.00800           0
     22304 MEMB     192      SAPS     H13Y     HAL2     0.900000E-01   1.00800           0
     22305 MEMB     192      SAPS     C314     CTL2    -0.180000       12.0110           0
     22306 MEMB     192      SAPS     H14X     HAL2     0.900000E-01   1.00800           0
     22307 MEMB     192      SAPS     H14Y     HAL2     0.900000E-01   1.00800           0
     22308 MEMB     192      SAPS     C315     CTL2    -0.180000       12.0110           0
     22309 MEMB     192      SAPS     H15X     HAL2     0.900000E-01   1.00800           0
     22310 MEMB     192      SAPS     H15Y     HAL2     0.900000E-01   1.00800           0
     22311 MEMB     192      SAPS     C316     CTL2    -0.180000       12.0110           0
     22312 MEMB     192      SAPS     H16X     HAL2     0.900000E-01   1.00800           0
     22313 MEMB     192      SAPS     H16Y     HAL2     0.900000E-01   1.00800           0
     22314 MEMB     192      SAPS     C317     CTL2    -0.180000       12.0110           0
     22315 MEMB     192      SAPS     H17X     HAL2     0.900000E-01   1.00800           0
     22316 MEMB     192      SAPS     H17Y     HAL2     0.900000E-01   1.00800           0
     22317 MEMB     192      SAPS     C318     CTL3    -0.270000       12.0110           0
     22318 MEMB     192      SAPS     H18X     HAL3     0.900000E-01   1.00800           0
     22319 MEMB     192      SAPS     H18Y     HAL3     0.900000E-01   1.00800           0
     22320 MEMB     192      SAPS     H18Z     HAL3     0.900000E-01   1.00800           0

     22356 !NBOND: bonds
         1         2         1         3         1         4         1         5
         9         7         7         5         7         8         5         6
         5        10        18        17        10        11        10        12
        10        16        16        13        13        17        13        14
        13        15        18        19        18        20        18        21
        21        22        21        29        21        23        29        30
        29        31        29        32        23        24        24        26
        24        25        26        27        26        28        26        38
        38        39        38        40        38        41        41        42
        41        43        41        44        44        45        44        46
        46        47        46        48        48        49        48        50
        48        51        51        52        51        53        53        54
        53        55        55        56        55        57        55        58
        58        59        58        60        60        61        60        62
        62        63        62        64        62        65        65        66
        65        67        67        68        67        69        69        70
        69        71        69        72        72        73        72        74
        72        75        75        76        75        77        75        78
        78        79        78        80        78        81        81        82
        81        83        81        84        32        33        33        35
        33        34        35        36        35        37        35        85
        85        86        85        87        85        88        88        89
        88        90        88        91        91        92        91        93
        91        94        94        95        94        96        94        97
        97        98        97        99        97       100       100       101
       100       102       100       103       103       104       103       105
       103       106       106       107       106       108       106       109
       109       110       109       111       109       112       112       113
       112       114       112       115       115       116       115       117
       115       118       118       119       118       120       118       121
       121       122       121       123       121       124       124       125
       124       126       124       127       127       128       127       129
       127       130       130       131       130       132       130       133
       134       138       134       142       134       146       138       139
       138       140       138       141       142       143       142       144
       142       145       146       147       146       148       146       149
       134       135       135       136       135       137       135       150
       150       151       150       152       150       156       157       158
       156       153       153       157       153       154       153       155
       158       159       158       160       158       161       161       162
       161       169       161       163       169       170       169       171
       169       172       163       164       164       166       164       165
       166       167       166       168       166       178       178       179
       178       180       178       181       181       182       181       183
       181       184       184       185       184       186       186       187
       186       188       188       189       188       190       188       191
       191       192       191       193       193       194       193       195
       195       196       195       197       195       198       198       199
       198       200       200       201       200       202       202       203
       202       204       202       205       205       206       205       207
       207       208       207       209       209       210       209       211
       209       212       212       213       212       214       212       215
       215       216       215       217       215       218       218       219
       218       220       218       221       221       222       221       223
       221       224       172       173       173       175       173       174
       175       176       175       177       175       225       225       226
       225       227       225       228       228       229       228       230
       228       231       231       232       231       233       231       234
       234       235       234       236       234       237       237       238
       237       239       237       240       240       241       240       242
       240       243       243       244       243       245       243       246
       246       247       246       248       246       249       249       250
       249       251       249       252       252       253       252       254
       252       255       255       256       255       257       255       258
       258       259       258       260       258       261       261       262
       261       263       261       264       264       265       264       266
       264       267       267       268       267       269       267       270
       270       271       270       272       270       273       274       278
       274       282       274       286       278       279       278       280
       278       281       282       283       282       284       282       285
       286       287       286       288       286       289       274       275
       275       276       275       277       275       290       290       291
       290       292       290       296       297       298       296       293
       293       297       293       294       293       295       298       299
       298       300       298       301       301       302       301       309
       301       303       309       310       309       311       309       312
       303       304       304       306       304       305       306       307
       306       308       306       318       318       319       318       320
       318       321       321       322       321       323       321       324
       324       325       324       326       324       327       327       328
       327       329       327       330       330       331       330       332
       330       333       333       334       333       335       333       336
       336       337       336       338       338       339       338       340
       340       341       340       342       340       343       343       344
       343       345       343       346       346       347       346       348
       346       349       349       350       349       351       349       352
       352       353       352       354       352       355       355       356
       355       357       355       358       358       359       358       360
       358       361       361       362       361       363       361       364
       312       313       313       315       313       314       315       316
       315       317       315       365       365       366       365       367
       365       368       368       369       368       370       368       371
       371       372       371       373       371       374       374       375
       374       376       374       377       377       378       377       379
       377       380       380       381       380       382       380       383
       383       384       383       385       383       386       386       387
       386       388       386       389       389       390       389       391
       389       392       392       393       392       394       392       395
       395       396       395       397       395       398       398       399
       398       400       398       401       401       402       401       403
       401       404       404       405       404       406       404       407
       408       410       408       409       410       411       408       454
       454       455       454       456       454       451       451       452
       451       453       408       412       412       413       412       414
       412       415       415       446       446       451       446       447
       447       448       447       449       447       450       415       416
       416       417       416       418       418       419       418       420
       418       421       421       422       421       444       444       445
       444       446       421       423       423       424       423       433
       433       438       438       439       438       440       438       441
       441       442       441       443       441       444       433       434
       434       435       434       436       434       437       423       425
       425       426       425       427       425       428       428       429
       428       430       428       431       431       432       431       433
       431       457       457       458       457       459       459       460
       459       461       459       462       457       463       463       464
       463       465       463       466       466       467       466       468
       466       469       469       470       469       471       469       472
       472       473       472       474       474       475       474       476
       474       477       472       478       478       479       478       480
       478       481       557       558       557       559       557       560
       557       554       554       555       554       556       554       551
       551       552       551       553       551       548       548       549
       548       550       548       545       545       546       545       547
       545       542       542       543       542       544       542       539
       539       540       539       541       539       536       536       537
       536       538       536       533       533       534       533       535
       533       530       530       531       530       532       530       527
       527       528       527       529       527       524       524       525
       524       526       524       521       521       522       521       523
       521       519       519       520       517       518       517       513
       513       514       513       515       515       516       513       511
       511       512       511       506       506       507       506       508
       506       504       504       501       505       501       502       501
       503       501       505       498       498       499       498       500
       498       495       495       496       495       497       495       482
       482       491       482       487       482       483       491       492
       491       493       491       494       487       488       487       489
       487       490       483       484       483       485       483       486
       511       509       509       510       509       561       561       563
       563       564       563       565       563       566       566       567
       566       568       566       569       569       570       569       571
       569       572       572       573       572       574       572       575
       575       576       575       577       575       578       578       579
       578       580       578       581       581       582       581       583
       581       584       584       585       586       587       586       588
       588       589       588       590       588       591       591       592
       591       593       591       594       594       595       594       596
       594       597       597       598       597       599       597       600
       600       601       600       602       600       603       603       604
       603       605       603       606       606       607       606       608
       606       609       609       610       609       611       609       612
       517       519       584       586       561       562       613       614
       613       615       613       616       613       617       617       618
       617       619       617       620       620       621       620       622
       620       626       628       627       626       623       623       627
       623       624       623       625       628       629       628       630
       628       631       631       632       631       639       631       633
       639       640       639       641       639       642       633       634
       634       636       634       635       636       637       636       638
       636       648       648       649       648       650       648       651
       651       652       651       653       651       654       654       655
       654       656       656       657       656       658       658       659
       658       660       658       661       661       662       661       663
       663       664       663       665       665       666       665       667
       665       668       668       669       668       670       670       671
       670       672       672       673       672       674       672       675
       675       676       675       677       677       678       677       679
       679       680       679       681       679       682       682       683
       682       684       682       685       685       686       685       687
       685       688       688       689       688       690       688       691
       691       692       691       693       691       694       642       643
       643       645       643       644       645       646       645       647
       645       695       695       696       695       697       695       698
       698       699       698       700       698       701       701       702
       701       703       701       704       704       705       704       706
       704       707       707       708       707       709       707       710
       710       711       710       712       710       713       713       714
       713       715       713       716       716       717       716       718
       716       719       719       720       719       721       719       722
       722       723       722       724       722       725       725       726
       725       727       725       728       728       729       728       730
       728       731       731       732       731       733       731       734
       734       735       734       736       734       737       737       738
       737       739       737       740       740       741       740       742
       740       743       744       746       744       745       746       747
       744       790       790       791       790       792       790       787
       787       788       787       789       744       748       748       749
       748       750       748       751       751       782       782       787
       782       783       783       784       783       785       783       786
       751       752       752       753       752       754       754       755
       754       756       754       757       757       758       757       780
       780       781       780       782       757       759       759       760
       759       769       769       774       774       775       774       776
       774       777       777       778       777       779       777       780
       769       770       770       771       770       772       770       773
       759       761       761       762       761       763       761       764
       764       765       764       766       764       767       767       768
       767       769       767       793       793       794       793       795
       795       796       795       797       795       798       793       799
       799       800       799       801       799       802       802       803
       802       804       802       805       805       806       805       807
       805       808       808       809       808       810       810       811
       810       812       810       813       808       814       814       815
       814       816       814       817       818       822       818       826
       818       830       822       823       822       824       822       825
       826       827       826       828       826       829       830       831
       830       832       830       833       818       819       819       820
       819       821       819       834       834       835       834       836
       834       840       841       842       840       837       837       841
       837       838       837       839       842       843       842       844
       842       845       845       846       845       853       845       847
       853       854       853       855       853       856       847       848
       848       850       848       849       850       851       850       852
       850       862       862       863       862       864       862       865
       865       866       865       867       865       868       868       869
       868       870       870       871       870       872       872       873
       872       874       872       875       875       876       875       877
       877       878       877       879       879       880       879       881
       879       882       882       883       882       884       884       885
       884       886       886       887       886       888       886       889
       889       890       889       891       891       892       891       893
       893       894       893       895       893       896       896       897
       896       898       896       899       899       900       899       901
       899       902       902       903       902       904       902       905
       905       906       905       907       905       908       856       857
       857       859       857       858       859       860       859       861
       859       909       909       910       909       911       909       912
       912       913       912       914       912       915       915       916
       915       917       915       918       918       919       918       920
       918       921       921       922       921       923       921       924
       924       925       924       926       924       927       927       928
       927       929       927       930       930       931       930       932
       930       933       933       934       933       935       933       936
       936       937       936       938       936       939       939       940
       939       941       939       942       942       943       942       944
       942       945       945       946       945       947       945       948
       948       949       948       950       948       951       951       952
       951       953       951       954       954       955       954       956
       954       957       958       960       958       959       960       961
       958      1004      1004      1005      1004      1006      1004      1001
      1001      1002      1001      1003       958       962       962       963
       962       964       962       965       965       996       996      1001
       996       997       997       998       997       999       997      1000
       965       966       966       967       966       968       968       969
       968       970       968       971       971       972       971       994
       994       995       994       996       971       973       973       974
       973       983       983       988       988       989       988       990
       988       991       991       992       991       993       991       994
       983       984       984       985       984       986       984       987
       973       975       975       976       975       977       975       978
       978       979       978       980       978       981       981       982
       981       983       981      1007      1007      1008      1007      1009
      1009      1010      1009      1011      1009      1012      1007      1013
      1013      1014      1013      1015      1013      1016      1016      1017
      1016      1018      1016      1019      1019      1020      1019      1021
      1019      1022      1022      1023      1022      1024      1024      1025
      1024      1026      1024      1027      1022      1028      1028      1029
      1028      1030      1028      1031      1032      1034      1032      1033
      1034      1035      1032      1078      1078      1079      1078      1080
      1078      1075      1075      1076      1075      1077      1032      1036
      1036      1037      1036      1038      1036      1039      1039      1070
      1070      1075      1070      1071      1071      1072      1071      1073
      1071      1074      1039      1040      1040      1041      1040      1042
      1042      1043      1042      1044      1042      1045      1045      1046
      1045      1068      1068      1069      1068      1070      1045      1047
      1047      1048      1047      1057      1057      1062      1062      1063
      1062      1064      1062      1065      1065      1066      1065      1067
      1065      1068      1057      1058      1058      1059      1058      1060
      1058      1061      1047      1049      1049      1050      1049      1051
      1049      1052      1052      1053      1052      1054      1052      1055
      1055      1056      1055      1057      1055      1081      1081      1082
      1081      1083      1083      1084      1083      1085      1083      1086
      1081      1087      1087      1088      1087      1089      1087      1090
      1090      1091      1090      1092      1090      1093      1093      1094
      1093      1095      1093      1096      1096      1097      1096      1098
      1098      1099      1098      1100      1098      1101      1096      1102
      1102      1103      1102      1104      1102      1105      1106      1107
      1106      1108      1106      1109      1106      1110      1110      1111
      1110      1112      1110      1113      1113      1114      1113      1115
      1113      1119      1121      1120      1119      1116      1116      1120
      1116      1117      1116      1118      1121      1122      1121      1123
      1121      1124      1124      1125      1124      1132      1124      1126
      1132      1133      1132      1134      1132      1135      1126      1127
      1127      1129      1127      1128      1129      1130      1129      1131
      1129      1141      1141      1142      1141      1143      1141      1144
      1144      1145      1144      1146      1144      1147      1147      1148
      1147      1149      1147      1150      1150      1151      1150      1152
      1150      1153      1153      1154      1153      1155      1153      1156
      1156      1157      1156      1158      1156      1159      1159      1160
      1159      1161      1161      1162      1161      1163      1163      1164
      1163      1165      1163      1166      1166      1167      1166      1168
      1166      1169      1169      1170      1169      1171      1169      1172
      1172      1173      1172      1174      1172      1175      1175      1176
      1175      1177      1175      1178      1178      1179      1178      1180
      1178      1181      1181      1182      1181      1183      1181      1184
      1184      1185      1184      1186      1184      1187      1135      1136
      1136      1138      1136      1137      1138      1139      1138      1140
      1138      1188      1188      1189      1188      1190      1188      1191
      1191      1192      1191      1193      1191      1194      1194      1195
      1194      1196      1194      1197      1197      1198      1197      1199
      1197      1200      1200      1201      1200      1202      1200      1203
      1203      1204      1203      1205      1203      1206      1206      1207
      1206      1208      1206      1209      1209      1210      1209      1211
      1209      1212      1212      1213      1212      1214      1212      1215
      1215      1216      1215      1217      1215      1218      1218      1219
      1218      1220      1218      1221      1221      1222      1221      1223
      1221      1224      1224      1225      1224      1226      1224      1227
      1227      1228      1227      1229      1227      1230      1230      1231
      1230      1232      1230      1233      1233      1234      1233      1235
      1233      1236      1312      1313      1312      1314      1312      1315
      1312      1309      1309      1310      1309      1311      1309      1306
      1306      1307      1306      1308      1306      1303      1303      1304
      1303      1305      1303      1300      1300      1301      1300      1302
      1300      1297      1297      1298      1297      1299      1297      1294
      1294      1295      1294      1296      1294      1291      1291      1292
      1291      1293      1291      1288      1288      1289      1288      1290
      1288      1285      1285      1286      1285      1287      1285      1282
      1282      1283      1282      1284      1282      1279      1279      1280
      1279      1281      1279      1276      1276      1277      1276      1278
      1276      1274      1274      1275      1272      1273      1272      1268
      1268      1269      1268      1270      1270      1271      1268      1266
      1266      1267      1266      1261      1261      1262      1261      1263
      1261      1259      1259      1256      1260      1256      1257      1256
      1258      1256      1260      1253      1253      1254      1253      1255
      1253      1250      1250      1251      1250      1252      1250      1237
      1237      1246      1237      1242      1237      1238      1246      1247
      1246      1248      1246      1249      1242      1243      1242      1244
      1242      1245      1238      1239      1238      1240      1238      1241
      1266      1264      1264      1265      1264      1316      1316      1318
      1318      1319      1318      1320      1318      1321      1321      1322
      1321      1323      1321      1324      1324      1325      1324      1326
      1324      1327      1327      1328      1327      1329      1327      1330
      1330      1331      1330      1332      1330      1333      1333      1334
      1333      1335      1333      1336      1336      1337      1336      1338
      1336      1339      1339      1340      1341      1342      1341      1343
      1343      1344      1343      1345      1343      1346      1346      1347
      1346      1348      1346      1349      1349      1350      1349      1351
      1349      1352      1352      1353      1352      1354      1352      1355
      1355      1356      1355      1357      1355      1358      1358      1359
      1358      1360      1358      1361      1361      1362      1361      1363
      1361      1364      1364      1365      1364      1366      1364      1367
      1272      1274      1339      1341      1316      1317      1368      1372
      1368      1376      1368      1380      1372      1373      1372      1374
      1372      1375      1376      1377      1376      1378      1376      1379
      1380      1381      1380      1382      1380      1383      1368      1369
      1369      1370      1369      1371      1369      1384      1384      1385
      1384      1386      1384      1390      1391      1392      1390      1387
      1387      1391      1387      1388      1387      1389      1392      1393
      1392      1394      1392      1395      1395      1396      1395      1403
      1395      1397      1403      1404      1403      1405      1403      1406
      1397      1398      1398      1400      1398      1399      1400      1401
      1400      1402      1400      1412      1412      1413      1412      1414
      1412      1415      1415      1416      1415      1417      1415      1418
      1418      1419      1418      1420      1418      1421      1421      1422
      1421      1423      1421      1424      1424      1425      1424      1426
      1424      1427      1427      1428      1427      1429      1427      1430
      1430      1431      1430      1432      1432      1433      1432      1434
      1434      1435      1434      1436      1434      1437      1437      1438
      1437      1439      1437      1440      1440      1441      1440      1442
      1440      1443      1443      1444      1443      1445      1443      1446
      1446      1447      1446      1448      1446      1449      1449      1450
      1449      1451      1449      1452      1452      1453      1452      1454
      1452      1455      1455      1456      1455      1457      1455      1458
      1406      1407      1407      1409      1407      1408      1409      1410
      1409      1411      1409      1459      1459      1460      1459      1461
      1459      1462      1462      1463      1462      1464      1462      1465
      1465      1466      1465      1467      1465      1468      1468      1469
      1468      1470      1468      1471      1471      1472      1471      1473
      1471      1474      1474      1475      1474      1476      1474      1477
      1477      1478      1477      1479      1477      1480      1480      1481
      1480      1482      1480      1483      1483      1484      1483      1485
      1483      1486      1486      1487      1486      1488      1486      1489
      1489      1490      1489      1491      1489      1492      1492      1493
      1492      1494      1492      1495      1495      1496      1495      1497
      1495      1498      1498      1499      1498      1500      1498      1501
      1502      1504      1502      1503      1504      1505      1502      1548
      1548      1549      1548      1550      1548      1545      1545      1546
      1545      1547      1502      1506      1506      1507      1506      1508
      1506      1509      1509      1540      1540      1545      1540      1541
      1541      1542      1541      1543      1541      1544      1509      1510
      1510      1511      1510      1512      1512      1513      1512      1514
      1512      1515      1515      1516      1515      1538      1538      1539
      1538      1540      1515      1517      1517      1518      1517      1527
      1527      1532      1532      1533      1532      1534      1532      1535
      1535      1536      1535      1537      1535      1538      1527      1528
      1528      1529      1528      1530      1528      1531      1517      1519
      1519      1520      1519      1521      1519      1522      1522      1523
      1522      1524      1522      1525      1525      1526      1525      1527
      1525      1551      1551      1552      1551      1553      1553      1554
      1553      1555      1553      1556      1551      1557      1557      1558
      1557      1559      1557      1560      1560      1561      1560      1562
      1560      1563      1563      1564      1563      1565      1563      1566
      1566      1567      1566      1568      1568      1569      1568      1570
      1568      1571      1566      1572      1572      1573      1572      1574
      1572      1575      1576      1578      1576      1577      1578      1579
      1576      1622      1622      1623      1622      1624      1622      1619
      1619      1620      1619      1621      1576      1580      1580      1581
      1580      1582      1580      1583      1583      1614      1614      1619
      1614      1615      1615      1616      1615      1617      1615      1618
      1583      1584      1584      1585      1584      1586      1586      1587
      1586      1588      1586      1589      1589      1590      1589      1612
      1612      1613      1612      1614      1589      1591      1591      1592
      1591      1601      1601      1606      1606      1607      1606      1608
      1606      1609      1609      1610      1609      1611      1609      1612
      1601      1602      1602      1603      1602      1604      1602      1605
      1591      1593      1593      1594      1593      1595      1593      1596
      1596      1597      1596      1598      1596      1599      1599      1600
      1599      1601      1599      1625      1625      1626      1625      1627
      1627      1628      1627      1629      1627      1630      1625      1631
      1631      1632      1631      1633      1631      1634      1634      1635
      1634      1636      1634      1637      1637      1638      1637      1639
      1637      1640      1640      1641      1640      1642      1642      1643
      1642      1644      1642      1645      1640      1646      1646      1647
      1646      1648      1646      1649      1650      1652      1650      1651
      1652      1653      1650      1696      1696      1697      1696      1698
      1696      1693      1693      1694      1693      1695      1650      1654
      1654      1655      1654      1656      1654      1657      1657      1688
      1688      1693      1688      1689      1689      1690      1689      1691
      1689      1692      1657      1658      1658      1659      1658      1660
      1660      1661      1660      1662      1660      1663      1663      1664
      1663      1686      1686      1687      1686      1688      1663      1665
      1665      1666      1665      1675      1675      1680      1680      1681
      1680      1682      1680      1683      1683      1684      1683      1685
      1683      1686      1675      1676      1676      1677      1676      1678
      1676      1679      1665      1667      1667      1668      1667      1669
      1667      1670      1670      1671      1670      1672      1670      1673
      1673      1674      1673      1675      1673      1699      1699      1700
      1699      1701      1701      1702      1701      1703      1701      1704
      1699      1705      1705      1706      1705      1707      1705      1708
      1708      1709      1708      1710      1708      1711      1711      1712
      1711      1713      1711      1714      1714      1715      1714      1716
      1716      1717      1716      1718      1716      1719      1714      1720
      1720      1721      1720      1722      1720      1723      1724      1725
      1724      1726      1724      1727      1724      1728      1732      1730
      1730      1728      1730      1731      1728      1729      1728      1733
      1741      1740      1733      1734      1733      1735      1733      1739
      1739      1736      1736      1740      1736      1737      1736      1738
      1741      1742      1741      1743      1741      1744      1744      1745
      1744      1752      1744      1746      1752      1753      1752      1754
      1752      1755      1746      1747      1747      1749      1747      1748
      1749      1750      1749      1751      1749      1761      1761      1762
      1761      1763      1761      1764      1764      1765      1764      1766
      1764      1767      1767      1768      1767      1769      1769      1770
      1769      1771      1771      1772      1771      1773      1771      1774
      1774      1775      1774      1776      1776      1777      1776      1778
      1778      1779      1778      1780      1778      1781      1781      1782
      1781      1783      1783      1784      1783      1785      1785      1786
      1785      1787      1785      1788      1788      1789      1788      1790
      1790      1791      1790      1792      1792      1793      1792      1794
      1792      1795      1795      1796      1795      1797      1795      1798
      1798      1799      1798      1800      1798      1801      1801      1802
      1801      1803      1801      1804      1804      1805      1804      1806
      1804      1807      1755      1756      1756      1758      1756      1757
      1758      1759      1758      1760      1758      1808      1808      1809
      1808      1810      1808      1811      1811      1812      1811      1813
      1811      1814      1814      1815      1814      1816      1814      1817
      1817      1818      1817      1819      1817      1820      1820      1821
      1820      1822      1820      1823      1823      1824      1823      1825
      1823      1826      1826      1827      1826      1828      1826      1829
      1829      1830      1829      1831      1829      1832      1832      1833
      1832      1834      1832      1835      1835      1836      1835      1837
      1835      1838      1838      1839      1838      1840      1838      1841
      1841      1842      1841      1843      1841      1844      1844      1845
      1844      1846      1844      1847      1847      1848      1847      1849
      1847      1850      1850      1851      1850      1852      1850      1853
      1853      1854      1853      1855      1853      1856      1932      1933
      1932      1934      1932      1935      1932      1929      1929      1930
      1929      1931      1929      1926      1926      1927      1926      1928
      1926      1923      1923      1924      1923      1925      1923      1920
      1920      1921      1920      1922      1920      1917      1917      1918
      1917      1919      1917      1914      1914      1915      1914      1916
      1914      1911      1911      1912      1911      1913      1911      1908
      1908      1909      1908      1910      1908      1905      1905      1906
      1905      1907      1905      1902      1902      1903      1902      1904
      1902      1899      1899      1900      1899      1901      1899      1896
      1896      1897      1896      1898      1896      1894      1894      1895
      1892      1893      1892      1888      1888      1889      1888      1890
      1890      1891      1888      1886      1886      1887      1886      1881
      1881      1882      1881      1883      1881      1879      1879      1876
      1880      1876      1877      1876      1878      1876      1880      1873
      1873      1874      1873      1875      1873      1870      1870      1871
      1870      1872      1870      1857      1857      1866      1857      1862
      1857      1858      1866      1867      1866      1868      1866      1869
      1862      1863      1862      1864      1862      1865      1858      1859
      1858      1860      1858      1861      1886      1884      1884      1885
      1884      1936      1936      1938      1938      1939      1938      1940
      1938      1941      1941      1942      1941      1943      1941      1944
      1944      1945      1944      1946      1944      1947      1947      1948
      1947      1949      1947      1950      1950      1951      1950      1952
      1950      1953      1953      1954      1953      1955      1953      1956
      1956      1957      1956      1958      1956      1959      1959      1960
      1961      1962      1961      1963      1963      1964      1963      1965
      1963      1966      1966      1967      1966      1968      1966      1969
      1969      1970      1969      1971      1969      1972      1972      1973
      1972      1974      1972      1975      1975      1976      1975      1977
      1975      1978      1978      1979      1978      1980      1978      1981
      1981      1982      1981      1983      1981      1984      1984      1985
      1984      1986      1984      1987      1892      1894      1959      1961
      1936      1937      2008      2009      2008      2004      2008      1988
      2008      2013      1988      1989      1988      1990      1990      1991
      1988      1992      1992      1993      1992      1994      1994      1995
      1992      1996      1996      1997      1996      1998      1998      1999
      1996      2000      2000      2001      2000      2004      2004      2005
      2004      2006      2006      2007      2000      2002      2002      2003
      2013      2010      2010      2014      2010      2011      2010      2012
      2014      2015      2015      2016      2015      2017      2015      2018
      2018      2019      2018      2026      2018      2020      2026      2027
      2026      2028      2026      2029      2020      2021      2021      2023
      2021      2022      2023      2024      2023      2025      2023      2035
      2035      2036      2035      2037      2035      2038      2038      2039
      2038      2040      2038      2041      2041      2042      2041      2043
      2043      2044      2043      2045      2045      2046      2045      2047
      2045      2048      2048      2049      2048      2050      2050      2051
      2050      2052      2052      2053      2052      2054      2052      2055
      2055      2056      2055      2057      2057      2058      2057      2059
      2059      2060      2059      2061      2059      2062      2062      2063
      2062      2064      2064      2065      2064      2066      2066      2067
      2066      2068      2066      2069      2069      2070      2069      2071
      2069      2072      2072      2073      2072      2074      2072      2075
      2075      2076      2075      2077      2075      2078      2078      2079
      2078      2080      2078      2081      2029      2030      2030      2032
      2030      2031      2032      2033      2032      2034      2032      2082
      2082      2083      2082      2084      2082      2085      2085      2086
      2085      2087      2085      2088      2088      2089      2088      2090
      2088      2091      2091      2092      2091      2093      2091      2094
      2094      2095      2094      2096      2094      2097      2097      2098
      2097      2099      2097      2100      2100      2101      2100      2102
      2100      2103      2103      2104      2103      2105      2103      2106
      2106      2107      2106      2108      2106      2109      2109      2110
      2109      2111      2109      2112      2112      2113      2112      2114
      2112      2115      2115      2116      2115      2117      2115      2118
      2118      2119      2118      2120      2118      2121      2121      2122
      2121      2123      2121      2124      2124      2125      2124      2126
      2124      2127      2127      2128      2127      2129      2127      2130
      2131      2132      2131      2133      2131      2134      2131      2135
      2135      2136      2135      2137      2135      2138      2138      2139
      2138      2140      2138      2144      2146      2145      2144      2141
      2141      2145      2141      2142      2141      2143      2146      2147
      2146      2148      2146      2149      2149      2150      2149      2157
      2149      2151      2157      2158      2157      2159      2157      2160
      2151      2152      2152      2154      2152      2153      2154      2155
      2154      2156      2154      2166      2166      2167      2166      2168
      2166      2169      2169      2170      2169      2171      2169      2172
      2172      2173      2172      2174      2174      2175      2174      2176
      2176      2177      2176      2178      2176      2179      2179      2180
      2179      2181      2181      2182      2181      2183      2183      2184
      2183      2185      2183      2186      2186      2187      2186      2188
      2188      2189      2188      2190      2190      2191      2190      2192
      2190      2193      2193      2194      2193      2195      2195      2196
      2195      2197      2197      2198      2197      2199      2197      2200
      2200      2201      2200      2202      2200      2203      2203      2204
      2203      2205      2203      2206      2206      2207      2206      2208
      2206      2209      2209      2210      2209      2211      2209      2212
      2160      2161      2161      2163      2161      2162      2163      2164
      2163      2165      2163      2213      2213      2214      2213      2215
      2213      2216      2216      2217      2216      2218      2216      2219
      2219      2220      2219      2221      2219      2222      2222      2223
      2222      2224      2222      2225      2225      2226      2225      2227
      2225      2228      2228      2229      2228      2230      2228      2231
      2231      2232      2231      2233      2231      2234      2234      2235
      2234      2236      2234      2237      2237      2238      2237      2239
      2237      2240      2240      2241      2240      2242      2240      2243
      2243      2244      2243      2245      2243      2246      2246      2247
      2246      2248      2246      2249      2249      2250      2249      2251
      2249      2252      2252      2253      2252      2254      2252      2255
      2255      2256      2255      2257      2255      2258      2258      2259
      2258      2260      2258      2261      2262      2264      2262      2263
      2264      2265      2262      2308      2308      2309      2308      2310
      2308      2305      2305      2306      2305      2307      2262      2266
      2266      2267      2266      2268      2266      2269      2269      2300
      2300      2305      2300      2301      2301      2302      2301      2303
      2301      2304      2269      2270      2270      2271      2270      2272
      2272      2273      2272      2274      2272      2275      2275      2276
      2275      2298      2298      2299      2298      2300      2275      2277
      2277      2278      2277      2287      2287      2292      2292      2293
      2292      2294      2292      2295      2295      2296      2295      2297
      2295      2298      2287      2288      2288      2289      2288      2290
      2288      2291      2277      2279      2279      2280      2279      2281
      2279      2282      2282      2283      2282      2284      2282      2285
      2285      2286      2285      2287      2285      2311      2311      2312
      2311      2313      2313      2314      2313      2315      2313      2316
      2311      2317      2317      2318      2317      2319      2317      2320
      2320      2321      2320      2322      2320      2323      2323      2324
      2323      2325      2323      2326      2326      2327      2326      2328
      2328      2329      2328      2330      2328      2331      2326      2332
      2332      2333      2332      2334      2332      2335      2336      2337
      2336      2338      2336      2339      2336      2340      2340      2341
      2340      2342      2340      2343      2343      2344      2343      2345
      2343      2349      2351      2350      2349      2346      2346      2350
      2346      2347      2346      2348      2351      2352      2351      2353
      2351      2354      2354      2355      2354      2362      2354      2356
      2362      2363      2362      2364      2362      2365      2356      2357
      2357      2359      2357      2358      2359      2360      2359      2361
      2359      2371      2371      2372      2371      2373      2371      2374
      2374      2375      2374      2376      2374      2377      2377      2378
      2377      2379      2379      2380      2379      2381      2381      2382
      2381      2383      2381      2384      2384      2385      2384      2386
      2386      2387      2386      2388      2388      2389      2388      2390
      2388      2391      2391      2392      2391      2393      2393      2394
      2393      2395      2395      2396      2395      2397      2395      2398
      2398      2399      2398      2400      2400      2401      2400      2402
      2402      2403      2402      2404      2402      2405      2405      2406
      2405      2407      2405      2408      2408      2409      2408      2410
      2408      2411      2411      2412      2411      2413      2411      2414
      2414      2415      2414      2416      2414      2417      2365      2366
      2366      2368      2366      2367      2368      2369      2368      2370
      2368      2418      2418      2419      2418      2420      2418      2421
      2421      2422      2421      2423      2421      2424      2424      2425
      2424      2426      2424      2427      2427      2428      2427      2429
      2427      2430      2430      2431      2430      2432      2430      2433
      2433      2434      2433      2435      2433      2436      2436      2437
      2436      2438      2436      2439      2439      2440      2439      2441
      2439      2442      2442      2443      2442      2444      2442      2445
      2445      2446      2445      2447      2445      2448      2448      2449
      2448      2450      2448      2451      2451      2452      2451      2453
      2451      2454      2454      2455      2454      2456      2454      2457
      2457      2458      2457      2459      2457      2460      2460      2461
      2460      2462      2460      2463      2463      2464      2463      2465
      2463      2466      2467      2468      2467      2472      2467      2476
      2468      2469      2468      2470      2468      2471      2472      2473
      2472      2474      2472      2475      2476      2477      2476      2478
      2476      2479      2467      2480      2480      2481      2480      2482
      2480      2483      2483      2484      2483      2485      2483      2489
      2490      2491      2489      2486      2486      2490      2486      2487
      2486      2488      2491      2492      2491      2493      2491      2494
      2494      2495      2494      2502      2494      2496      2502      2503
      2502      2504      2502      2505      2496      2497      2497      2499
      2497      2498      2499      2500      2499      2501      2499      2511
      2511      2512      2511      2513      2511      2514      2514      2515
      2514      2516      2514      2517      2517      2518      2517      2519
      2517      2520      2520      2521      2520      2522      2520      2523
      2523      2524      2523      2525      2523      2526      2526      2527
      2526      2528      2526      2529      2529      2530      2529      2531
      2531      2532      2531      2533      2533      2534      2533      2535
      2533      2536      2536      2537      2536      2538      2538      2539
      2538      2540      2540      2541      2540      2542      2540      2543
      2543      2544      2543      2545      2543      2546      2546      2547
      2546      2548      2546      2549      2549      2550      2549      2551
      2549      2552      2552      2553      2552      2554      2552      2555
      2505      2506      2506      2508      2506      2507      2508      2509
      2508      2510      2508      2556      2556      2557      2556      2558
      2556      2559      2559      2560      2559      2561      2559      2562
      2562      2563      2562      2564      2562      2565      2565      2566
      2565      2567      2565      2568      2568      2569      2568      2570
      2568      2571      2571      2572      2571      2573      2571      2574
      2574      2575      2574      2576      2574      2577      2577      2578
      2577      2579      2577      2580      2580      2581      2580      2582
      2580      2583      2583      2584      2583      2585      2583      2586
      2586      2587      2586      2588      2586      2589      2589      2590
      2589      2591      2589      2592      2592      2593      2592      2594
      2592      2595      2595      2596      2595      2597      2595      2598
      2598      2599      2598      2600      2598      2601      2601      2602
      2601      2603      2601      2604      2680      2681      2680      2682
      2680      2683      2680      2677      2677      2678      2677      2679
      2677      2674      2674      2675      2674      2676      2674      2671
      2671      2672      2671      2673      2671      2668      2668      2669
      2668      2670      2668      2665      2665      2666      2665      2667
      2665      2662      2662      2663      2662      2664      2662      2659
      2659      2660      2659      2661      2659      2656      2656      2657
      2656      2658      2656      2653      2653      2654      2653      2655
      2653      2650      2650      2651      2650      2652      2650      2647
      2647      2648      2647      2649      2647      2644      2644      2645
      2644      2646      2644      2642      2642      2643      2640      2641
      2640      2636      2636      2637      2636      2638      2638      2639
      2636      2634      2634      2635      2634      2629      2629      2630
      2629      2631      2629      2627      2627      2624      2628      2624
      2625      2624      2626      2624      2628      2621      2621      2622
      2621      2623      2621      2618      2618      2619      2618      2620
      2618      2605      2605      2614      2605      2610      2605      2606
      2614      2615      2614      2616      2614      2617      2610      2611
      2610      2612      2610      2613      2606      2607      2606      2608
      2606      2609      2634      2632      2632      2633      2632      2684
      2684      2686      2686      2687      2686      2688      2686      2689
      2689      2690      2689      2691      2689      2692      2692      2693
      2692      2694      2692      2695      2695      2696      2695      2697
      2695      2698      2698      2699      2698      2700      2698      2701
      2701      2702      2701      2703      2701      2704      2704      2705
      2704      2706      2704      2707      2707      2708      2709      2710
      2709      2711      2711      2712      2711      2713      2711      2714
      2714      2715      2714      2716      2714      2717      2717      2718
      2717      2719      2717      2720      2720      2721      2720      2722
      2720      2723      2723      2724      2723      2725      2723      2726
      2726      2727      2726      2728      2726      2729      2729      2730
      2729      2731      2729      2732      2732      2733      2732      2734
      2732      2735      2640      2642      2707      2709      2684      2685
      2736      2738      2736      2737      2738      2739      2736      2782
      2782      2783      2782      2784      2782      2779      2779      2780
      2779      2781      2736      2740      2740      2741      2740      2742
      2740      2743      2743      2774      2774      2779      2774      2775
      2775      2776      2775      2777      2775      2778      2743      2744
      2744      2745      2744      2746      2746      2747      2746      2748
      2746      2749      2749      2750      2749      2772      2772      2773
      2772      2774      2749      2751      2751      2752      2751      2761
      2761      2766      2766      2767      2766      2768      2766      2769
      2769      2770      2769      2771      2769      2772      2761      2762
      2762      2763      2762      2764      2762      2765      2751      2753
      2753      2754      2753      2755      2753      2756      2756      2757
      2756      2758      2756      2759      2759      2760      2759      2761
      2759      2785      2785      2786      2785      2787      2787      2788
      2787      2789      2787      2790      2785      2791      2791      2792
      2791      2793      2791      2794      2794      2795      2794      2796
      2794      2797      2797      2798      2797      2799      2797      2800
      2800      2801      2800      2802      2802      2803      2802      2804
      2802      2805      2800      2806      2806      2807      2806      2808
      2806      2809      2810      2811      2810      2812      2810      2813
      2810      2814      2814      2815      2814      2816      2814      2817
      2817      2818      2817      2819      2817      2823      2825      2824
      2823      2820      2820      2824      2820      2821      2820      2822
      2825      2826      2825      2827      2825      2828      2828      2829
      2828      2836      2828      2830      2836      2837      2836      2838
      2836      2839      2830      2831      2831      2833      2831      2832
      2833      2834      2833      2835      2833      2845      2845      2846
      2845      2847      2845      2848      2848      2849      2848      2850
      2848      2851      2851      2852      2851      2853      2853      2854
      2853      2855      2855      2856      2855      2857      2855      2858
      2858      2859      2858      2860      2860      2861      2860      2862
      2862      2863      2862      2864      2862      2865      2865      2866
      2865      2867      2867      2868      2867      2869      2869      2870
      2869      2871      2869      2872      2872      2873      2872      2874
      2874      2875      2874      2876      2876      2877      2876      2878
      2876      2879      2879      2880      2879      2881      2879      2882
      2882      2883      2882      2884      2882      2885      2885      2886
      2885      2887      2885      2888      2888      2889      2888      2890
      2888      2891      2839      2840      2840      2842      2840      2841
      2842      2843      2842      2844      2842      2892      2892      2893
      2892      2894      2892      2895      2895      2896      2895      2897
      2895      2898      2898      2899      2898      2900      2898      2901
      2901      2902      2901      2903      2901      2904      2904      2905
      2904      2906      2904      2907      2907      2908      2907      2909
      2907      2910      2910      2911      2910      2912      2910      2913
      2913      2914      2913      2915      2913      2916      2916      2917
      2916      2918      2916      2919      2919      2920      2919      2921
      2919      2922      2922      2923      2922      2924      2922      2925
      2925      2926      2925      2927      2925      2928      2928      2929
      2928      2930      2928      2931      2931      2932      2931      2933
      2931      2934      2934      2935      2934      2936      2934      2937
      2937      2938      2937      2939      2937      2940      2941      2942
      2941      2943      2941      2944      2941      2945      2945      2946
      2945      2947      2945      2948      2948      2949      2948      2950
      2948      2954      2956      2955      2954      2951      2951      2955
      2951      2952      2951      2953      2956      2957      2956      2958
      2956      2959      2959      2960      2959      2967      2959      2961
      2967      2968      2967      2969      2967      2970      2961      2962
      2962      2964      2962      2963      2964      2965      2964      2966
      2964      2976      2976      2977      2976      2978      2976      2979
      2979      2980      2979      2981      2979      2982      2982      2983
      2982      2984      2982      2985      2985      2986      2985      2987
      2985      2988      2988      2989      2988      2990      2988      2991
      2991      2992      2991      2993      2991      2994      2994      2995
      2994      2996      2996      2997      2996      2998      2998      2999
      2998      3000      2998      3001      3001      3002      3001      3003
      3001      3004      3004      3005      3004      3006      3004      3007
      3007      3008      3007      3009      3007      3010      3010      3011
      3010      3012      3010      3013      3013      3014      3013      3015
      3013      3016      3016      3017      3016      3018      3016      3019
      3019      3020      3019      3021      3019      3022      2970      2971
      2971      2973      2971      2972      2973      2974      2973      2975
      2973      3023      3023      3024      3023      3025      3023      3026
      3026      3027      3026      3028      3026      3029      3029      3030
      3029      3031      3029      3032      3032      3033      3032      3034
      3032      3035      3035      3036      3035      3037      3035      3038
      3038      3039      3038      3040      3038      3041      3041      3042
      3041      3043      3041      3044      3044      3045      3044      3046
      3044      3047      3047      3048      3047      3049      3047      3050
      3050      3051      3050      3052      3050      3053      3053      3054
      3053      3055      3053      3056      3056      3057      3056      3058
      3056      3059      3059      3060      3059      3061      3059      3062
      3062      3063      3062      3064      3062      3065      3065      3066
      3065      3067      3065      3068      3068      3069      3068      3070
      3068      3071      3072      3073      3072      3077      3072      3081
      3073      3074      3073      3075      3073      3076      3077      3078
      3077      3079      3077      3080      3081      3082      3081      3083
      3081      3084      3072      3085      3085      3086      3085      3087
      3085      3088      3088      3089      3088      3090      3088      3094
      3095      3096      3094      3091      3091      3095      3091      3092
      3091      3093      3096      3097      3096      3098      3096      3099
      3099      3100      3099      3107      3099      3101      3107      3108
      3107      3109      3107      3110      3101      3102      3102      3104
      3102      3103      3104      3105      3104      3106      3104      3116
      3116      3117      3116      3118      3116      3119      3119      3120
      3119      3121      3119      3122      3122      3123      3122      3124
      3122      3125      3125      3126      3125      3127      3125      3128
      3128      3129      3128      3130      3128      3131      3131      3132
      3131      3133      3131      3134      3134      3135      3134      3136
      3136      3137      3136      3138      3138      3139      3138      3140
      3138      3141      3141      3142      3141      3143      3143      3144
      3143      3145      3145      3146      3145      3147      3145      3148
      3148      3149      3148      3150      3148      3151      3151      3152
      3151      3153      3151      3154      3154      3155      3154      3156
      3154      3157      3157      3158      3157      3159      3157      3160
      3110      3111      3111      3113      3111      3112      3113      3114
      3113      3115      3113      3161      3161      3162      3161      3163
      3161      3164      3164      3165      3164      3166      3164      3167
      3167      3168      3167      3169      3167      3170      3170      3171
      3170      3172      3170      3173      3173      3174      3173      3175
      3173      3176      3176      3177      3176      3178      3176      3179
      3179      3180      3179      3181      3179      3182      3182      3183
      3182      3184      3182      3185      3185      3186      3185      3187
      3185      3188      3188      3189      3188      3190      3188      3191
      3191      3192      3191      3193      3191      3194      3194      3195
      3194      3196      3194      3197      3197      3198      3197      3199
      3197      3200      3200      3201      3200      3202      3200      3203
      3203      3204      3203      3205      3203      3206      3206      3207
      3206      3208      3206      3209      3285      3286      3285      3287
      3285      3288      3285      3282      3282      3283      3282      3284
      3282      3279      3279      3280      3279      3281      3279      3276
      3276      3277      3276      3278      3276      3273      3273      3274
      3273      3275      3273      3270      3270      3271      3270      3272
      3270      3267      3267      3268      3267      3269      3267      3264
      3264      3265      3264      3266      3264      3261      3261      3262
      3261      3263      3261      3258      3258      3259      3258      3260
      3258      3255      3255      3256      3255      3257      3255      3252
      3252      3253      3252      3254      3252      3249      3249      3250
      3249      3251      3249      3247      3247      3248      3245      3246
      3245      3241      3241      3242      3241      3243      3243      3244
      3241      3239      3239      3240      3239      3234      3234      3235
      3234      3236      3234      3232      3232      3229      3233      3229
      3230      3229      3231      3229      3233      3226      3226      3227
      3226      3228      3226      3223      3223      3224      3223      3225
      3223      3210      3210      3219      3210      3215      3210      3211
      3219      3220      3219      3221      3219      3222      3215      3216
      3215      3217      3215      3218      3211      3212      3211      3213
      3211      3214      3239      3237      3237      3238      3237      3289
      3289      3291      3291      3292      3291      3293      3291      3294
      3294      3295      3294      3296      3294      3297      3297      3298
      3297      3299      3297      3300      3300      3301      3300      3302
      3300      3303      3303      3304      3303      3305      3303      3306
      3306      3307      3306      3308      3306      3309      3309      3310
      3309      3311      3309      3312      3312      3313      3314      3315
      3314      3316      3316      3317      3316      3318      3316      3319
      3319      3320      3319      3321      3319      3322      3322      3323
      3322      3324      3322      3325      3325      3326      3325      3327
      3325      3328      3328      3329      3328      3330      3328      3331
      3331      3332      3331      3333      3331      3334      3334      3335
      3334      3336      3334      3337      3337      3338      3337      3339
      3337      3340      3245      3247      3312      3314      3289      3290
      3416      3417      3416      3418      3416      3419      3416      3413
      3413      3414      3413      3415      3413      3410      3410      3411
      3410      3412      3410      3407      3407      3408      3407      3409
      3407      3404      3404      3405      3404      3406      3404      3401
      3401      3402      3401      3403      3401      3398      3398      3399
      3398      3400      3398      3395      3395      3396      3395      3397
      3395      3392      3392      3393      3392      3394      3392      3389
      3389      3390      3389      3391      3389      3386      3386      3387
      3386      3388      3386      3383      3383      3384      3383      3385
      3383      3380      3380      3381      3380      3382      3380      3378
      3378      3379      3376      3377      3376      3372      3372      3373
      3372      3374      3374      3375      3372      3370      3370      3371
      3370      3365      3365      3366      3365      3367      3365      3363
      3363      3360      3364      3360      3361      3360      3362      3360
      3364      3357      3357      3358      3357      3359      3357      3354
      3354      3355      3354      3356      3354      3341      3341      3350
      3341      3346      3341      3342      3350      3351      3350      3352
      3350      3353      3346      3347      3346      3348      3346      3349
      3342      3343      3342      3344      3342      3345      3370      3368
      3368      3369      3368      3420      3420      3422      3422      3423
      3422      3424      3422      3425      3425      3426      3425      3427
      3425      3428      3428      3429      3428      3430      3428      3431
      3431      3432      3431      3433      3431      3434      3434      3435
      3434      3436      3434      3437      3437      3438      3437      3439
      3437      3440      3440      3441      3440      3442      3440      3443
      3443      3444      3445      3446      3445      3447      3447      3448
      3447      3449      3447      3450      3450      3451      3450      3452
      3450      3453      3453      3454      3453      3455      3453      3456
      3456      3457      3456      3458      3456      3459      3459      3460
      3459      3461      3459      3462      3462      3463      3462      3464
      3462      3465      3465      3466      3465      3467      3465      3468
      3468      3469      3468      3470      3468      3471      3376      3378
      3443      3445      3420      3421      3472      3473      3472      3474
      3472      3475      3472      3476      3480      3478      3478      3476
      3478      3479      3476      3477      3476      3481      3489      3488
      3481      3482      3481      3483      3481      3487      3487      3484
      3484      3488      3484      3485      3484      3486      3489      3490
      3489      3491      3489      3492      3492      3493      3492      3500
      3492      3494      3500      3501      3500      3502      3500      3503
      3494      3495      3495      3497      3495      3496      3497      3498
      3497      3499      3497      3509      3509      3510      3509      3511
      3509      3512      3512      3513      3512      3514      3512      3515
      3515      3516      3515      3517      3517      3518      3517      3519
      3519      3520      3519      3521      3519      3522      3522      3523
      3522      3524      3524      3525      3524      3526      3526      3527
      3526      3528      3526      3529      3529      3530      3529      3531
      3531      3532      3531      3533      3533      3534      3533      3535
      3533      3536      3536      3537      3536      3538      3538      3539
      3538      3540      3540      3541      3540      3542      3540      3543
      3543      3544      3543      3545      3543      3546      3546      3547
      3546      3548      3546      3549      3549      3550      3549      3551
      3549      3552      3552      3553      3552      3554      3552      3555
      3503      3504      3504      3506      3504      3505      3506      3507
      3506      3508      3506      3556      3556      3557      3556      3558
      3556      3559      3559      3560      3559      3561      3559      3562
      3562      3563      3562      3564      3562      3565      3565      3566
      3565      3567      3565      3568      3568      3569      3568      3570
      3568      3571      3571      3572      3571      3573      3571      3574
      3574      3575      3574      3576      3574      3577      3577      3578
      3577      3579      3577      3580      3580      3581      3580      3582
      3580      3583      3583      3584      3583      3585      3583      3586
      3586      3587      3586      3588      3586      3589      3589      3590
      3589      3591      3589      3592      3592      3593      3592      3594
      3592      3595      3595      3596      3595      3597      3595      3598
      3598      3599      3598      3600      3598      3601      3601      3602
      3601      3603      3601      3604      3605      3606      3605      3610
      3605      3614      3606      3607      3606      3608      3606      3609
      3610      3611      3610      3612      3610      3613      3614      3615
      3614      3616      3614      3617      3605      3618      3618      3619
      3618      3620      3618      3621      3621      3622      3621      3623
      3621      3627      3628      3629      3627      3624      3624      3628
      3624      3625      3624      3626      3629      3630      3629      3631
      3629      3632      3632      3633      3632      3640      3632      3634
      3640      3641      3640      3642      3640      3643      3634      3635
      3635      3637      3635      3636      3637      3638      3637      3639
      3637      3649      3649      3650      3649      3651      3649      3652
      3652      3653      3652      3654      3652      3655      3655      3656
      3655      3657      3655      3658      3658      3659      3658      3660
      3658      3661      3661      3662      3661      3663      3661      3664
      3664      3665      3664      3666      3664      3667      3667      3668
      3667      3669      3669      3670      3669      3671      3671      3672
      3671      3673      3671      3674      3674      3675      3674      3676
      3676      3677      3676      3678      3678      3679      3678      3680
      3678      3681      3681      3682      3681      3683      3681      3684
      3684      3685      3684      3686      3684      3687      3687      3688
      3687      3689      3687      3690      3690      3691      3690      3692
      3690      3693      3643      3644      3644      3646      3644      3645
      3646      3647      3646      3648      3646      3694      3694      3695
      3694      3696      3694      3697      3697      3698      3697      3699
      3697      3700      3700      3701      3700      3702      3700      3703
      3703      3704      3703      3705      3703      3706      3706      3707
      3706      3708      3706      3709      3709      3710      3709      3711
      3709      3712      3712      3713      3712      3714      3712      3715
      3715      3716      3715      3717      3715      3718      3718      3719
      3718      3720      3718      3721      3721      3722      3721      3723
      3721      3724      3724      3725      3724      3726      3724      3727
      3727      3728      3727      3729      3727      3730      3730      3731
      3730      3732      3730      3733      3733      3734      3733      3735
      3733      3736      3736      3737      3736      3738      3736      3739
      3739      3740      3739      3741      3739      3742      3743      3744
      3743      3745      3743      3746      3743      3747      3747      3748
      3747      3749      3747      3750      3750      3751      3750      3752
      3750      3756      3758      3757      3756      3753      3753      3757
      3753      3754      3753      3755      3758      3759      3758      3760
      3758      3761      3761      3762      3761      3769      3761      3763
      3769      3770      3769      3771      3769      3772      3763      3764
      3764      3766      3764      3765      3766      3767      3766      3768
      3766      3778      3778      3779      3778      3780      3778      3781
      3781      3782      3781      3783      3781      3784      3784      3785
      3784      3786      3784      3787      3787      3788      3787      3789
      3787      3790      3790      3791      3790      3792      3790      3793
      3793      3794      3793      3795      3793      3796      3796      3797
      3796      3798      3798      3799      3798      3800      3800      3801
      3800      3802      3800      3803      3803      3804      3803      3805
      3803      3806      3806      3807      3806      3808      3806      3809
      3809      3810      3809      3811      3809      3812      3812      3813
      3812      3814      3812      3815      3815      3816      3815      3817
      3815      3818      3818      3819      3818      3820      3818      3821
      3821      3822      3821      3823      3821      3824      3772      3773
      3773      3775      3773      3774      3775      3776      3775      3777
      3775      3825      3825      3826      3825      3827      3825      3828
      3828      3829      3828      3830      3828      3831      3831      3832
      3831      3833      3831      3834      3834      3835      3834      3836
      3834      3837      3837      3838      3837      3839      3837      3840
      3840      3841      3840      3842      3840      3843      3843      3844
      3843      3845      3843      3846      3846      3847      3846      3848
      3846      3849      3849      3850      3849      3851      3849      3852
      3852      3853      3852      3854      3852      3855      3855      3856
      3855      3857      3855      3858      3858      3859      3858      3860
      3858      3861      3861      3862      3861      3863      3861      3864
      3864      3865      3864      3866      3864      3867      3867      3868
      3867      3869      3867      3870      3870      3871      3870      3872
      3870      3873      3894      3895      3894      3890      3894      3874
      3894      3899      3874      3875      3874      3876      3876      3877
      3874      3878      3878      3879      3878      3880      3880      3881
      3878      3882      3882      3883      3882      3884      3884      3885
      3882      3886      3886      3887      3886      3890      3890      3891
      3890      3892      3892      3893      3886      3888      3888      3889
      3899      3896      3896      3900      3896      3897      3896      3898
      3900      3901      3901      3902      3901      3903      3901      3904
      3904      3905      3904      3912      3904      3906      3912      3913
      3912      3914      3912      3915      3906      3907      3907      3909
      3907      3908      3909      3910      3909      3911      3909      3921
      3921      3922      3921      3923      3921      3924      3924      3925
      3924      3926      3924      3927      3927      3928      3927      3929
      3929      3930      3929      3931      3931      3932      3931      3933
      3931      3934      3934      3935      3934      3936      3936      3937
      3936      3938      3938      3939      3938      3940      3938      3941
      3941      3942      3941      3943      3943      3944      3943      3945
      3945      3946      3945      3947      3945      3948      3948      3949
      3948      3950      3950      3951      3950      3952      3952      3953
      3952      3954      3952      3955      3955      3956      3955      3957
      3955      3958      3958      3959      3958      3960      3958      3961
      3961      3962      3961      3963      3961      3964      3964      3965
      3964      3966      3964      3967      3915      3916      3916      3918
      3916      3917      3918      3919      3918      3920      3918      3968
      3968      3969      3968      3970      3968      3971      3971      3972
      3971      3973      3971      3974      3974      3975      3974      3976
      3974      3977      3977      3978      3977      3979      3977      3980
      3980      3981      3980      3982      3980      3983      3983      3984
      3983      3985      3983      3986      3986      3987      3986      3988
      3986      3989      3989      3990      3989      3991      3989      3992
      3992      3993      3992      3994      3992      3995      3995      3996
      3995      3997      3995      3998      3998      3999      3998      4000
      3998      4001      4001      4002      4001      4003      4001      4004
      4004      4005      4004      4006      4004      4007      4007      4008
      4007      4009      4007      4010      4010      4011      4010      4012
      4010      4013      4013      4014      4013      4015      4013      4016
      4017      4019      4017      4018      4019      4020      4017      4063
      4063      4064      4063      4065      4063      4060      4060      4061
      4060      4062      4017      4021      4021      4022      4021      4023
      4021      4024      4024      4055      4055      4060      4055      4056
      4056      4057      4056      4058      4056      4059      4024      4025
      4025      4026      4025      4027      4027      4028      4027      4029
      4027      4030      4030      4031      4030      4053      4053      4054
      4053      4055      4030      4032      4032      4033      4032      4042
      4042      4047      4047      4048      4047      4049      4047      4050
      4050      4051      4050      4052      4050      4053      4042      4043
      4043      4044      4043      4045      4043      4046      4032      4034
      4034      4035      4034      4036      4034      4037      4037      4038
      4037      4039      4037      4040      4040      4041      4040      4042
      4040      4066      4066      4067      4066      4068      4068      4069
      4068      4070      4068      4071      4066      4072      4072      4073
      4072      4074      4072      4075      4075      4076      4075      4077
      4075      4078      4078      4079      4078      4080      4078      4081
      4081      4082      4081      4083      4083      4084      4083      4085
      4083      4086      4081      4087      4087      4088      4087      4089
      4087      4090      4166      4167      4166      4168      4166      4169
      4166      4163      4163      4164      4163      4165      4163      4160
      4160      4161      4160      4162      4160      4157      4157      4158
      4157      4159      4157      4154      4154      4155      4154      4156
      4154      4151      4151      4152      4151      4153      4151      4148
      4148      4149      4148      4150      4148      4145      4145      4146
      4145      4147      4145      4142      4142      4143      4142      4144
      4142      4139      4139      4140      4139      4141      4139      4136
      4136      4137      4136      4138      4136      4133      4133      4134
      4133      4135      4133      4130      4130      4131      4130      4132
      4130      4128      4128      4129      4126      4127      4126      4122
      4122      4123      4122      4124      4124      4125      4122      4120
      4120      4121      4120      4115      4115      4116      4115      4117
      4115      4113      4113      4110      4114      4110      4111      4110
      4112      4110      4114      4107      4107      4108      4107      4109
      4107      4104      4104      4105      4104      4106      4104      4091
      4091      4100      4091      4096      4091      4092      4100      4101
      4100      4102      4100      4103      4096      4097      4096      4098
      4096      4099      4092      4093      4092      4094      4092      4095
      4120      4118      4118      4119      4118      4170      4170      4172
      4172      4173      4172      4174      4172      4175      4175      4176
      4175      4177      4175      4178      4178      4179      4178      4180
      4178      4181      4181      4182      4181      4183      4181      4184
      4184      4185      4184      4186      4184      4187      4187      4188
      4187      4189      4187      4190      4190      4191      4190      4192
      4190      4193      4193      4194      4195      4196      4195      4197
      4197      4198      4197      4199      4197      4200      4200      4201
      4200      4202      4200      4203      4203      4204      4203      4205
      4203      4206      4206      4207      4206      4208      4206      4209
      4209      4210      4209      4211      4209      4212      4212      4213
      4212      4214      4212      4215      4215      4216      4215      4217
      4215      4218      4218      4219      4218      4220      4218      4221
      4126      4128      4193      4195      4170      4171      4222      4224
      4222      4223      4224      4225      4222      4268      4268      4269
      4268      4270      4268      4265      4265      4266      4265      4267
      4222      4226      4226      4227      4226      4228      4226      4229
      4229      4260      4260      4265      4260      4261      4261      4262
      4261      4263      4261      4264      4229      4230      4230      4231
      4230      4232      4232      4233      4232      4234      4232      4235
      4235      4236      4235      4258      4258      4259      4258      4260
      4235      4237      4237      4238      4237      4247      4247      4252
      4252      4253      4252      4254      4252      4255      4255      4256
      4255      4257      4255      4258      4247      4248      4248      4249
      4248      4250      4248      4251      4237      4239      4239      4240
      4239      4241      4239      4242      4242      4243      4242      4244
      4242      4245      4245      4246      4245      4247      4245      4271
      4271      4272      4271      4273      4273      4274      4273      4275
      4273      4276      4271      4277      4277      4278      4277      4279
      4277      4280      4280      4281      4280      4282      4280      4283
      4283      4284      4283      4285      4283      4286      4286      4287
      4286      4288      4288      4289      4288      4290      4288      4291
      4286      4292      4292      4293      4292      4294      4292      4295
      4296      4297      4296      4298      4296      4299      4296      4300
      4300      4301      4300      4302      4300      4303      4303      4304
      4303      4305      4303      4309      4311      4310      4309      4306
      4306      4310      4306      4307      4306      4308      4311      4312
      4311      4313      4311      4314      4314      4315      4314      4322
      4314      4316      4322      4323      4322      4324      4322      4325
      4316      4317      4317      4319      4317      4318      4319      4320
      4319      4321      4319      4331      4331      4332      4331      4333
      4331      4334      4334      4335      4334      4336      4334      4337
      4337      4338      4337      4339      4339      4340      4339      4341
      4341      4342      4341      4343      4341      4344      4344      4345
      4344      4346      4346      4347      4346      4348      4348      4349
      4348      4350      4348      4351      4351      4352      4351      4353
      4353      4354      4353      4355      4355      4356      4355      4357
      4355      4358      4358      4359      4358      4360      4360      4361
      4360      4362      4362      4363      4362      4364      4362      4365
      4365      4366      4365      4367      4365      4368      4368      4369
      4368      4370      4368      4371      4371      4372      4371      4373
      4371      4374      4374      4375      4374      4376      4374      4377
      4325      4326      4326      4328      4326      4327      4328      4329
      4328      4330      4328      4378      4378      4379      4378      4380
      4378      4381      4381      4382      4381      4383      4381      4384
      4384      4385      4384      4386      4384      4387      4387      4388
      4387      4389      4387      4390      4390      4391      4390      4392
      4390      4393      4393      4394      4393      4395      4393      4396
      4396      4397      4396      4398      4396      4399      4399      4400
      4399      4401      4399      4402      4402      4403      4402      4404
      4402      4405      4405      4406      4405      4407      4405      4408
      4408      4409      4408      4410      4408      4411      4411      4412
      4411      4413      4411      4414      4414      4415      4414      4416
      4414      4417      4417      4418      4417      4419      4417      4420
      4420      4421      4420      4422      4420      4423      4423      4424
      4423      4425      4423      4426      4427      4429      4427      4428
      4429      4430      4427      4473      4473      4474      4473      4475
      4473      4470      4470      4471      4470      4472      4427      4431
      4431      4432      4431      4433      4431      4434      4434      4465
      4465      4470      4465      4466      4466      4467      4466      4468
      4466      4469      4434      4435      4435      4436      4435      4437
      4437      4438      4437      4439      4437      4440      4440      4441
      4440      4463      4463      4464      4463      4465      4440      4442
      4442      4443      4442      4452      4452      4457      4457      4458
      4457      4459      4457      4460      4460      4461      4460      4462
      4460      4463      4452      4453      4453      4454      4453      4455
      4453      4456      4442      4444      4444      4445      4444      4446
      4444      4447      4447      4448      4447      4449      4447      4450
      4450      4451      4450      4452      4450      4476      4476      4477
      4476      4478      4478      4479      4478      4480      4478      4481
      4476      4482      4482      4483      4482      4484      4482      4485
      4485      4486      4485      4487      4485      4488      4488      4489
      4488      4490      4488      4491      4491      4492      4491      4493
      4493      4494      4493      4495      4493      4496      4491      4497
      4497      4498      4497      4499      4497      4500      4501      4503
      4501      4502      4503      4504      4501      4547      4547      4548
      4547      4549      4547      4544      4544      4545      4544      4546
      4501      4505      4505      4506      4505      4507      4505      4508
      4508      4539      4539      4544      4539      4540      4540      4541
      4540      4542      4540      4543      4508      4509      4509      4510
      4509      4511      4511      4512      4511      4513      4511      4514
      4514      4515      4514      4537      4537      4538      4537      4539
      4514      4516      4516      4517      4516      4526      4526      4531
      4531      4532      4531      4533      4531      4534      4534      4535
      4534      4536      4534      4537      4526      4527      4527      4528
      4527      4529      4527      4530      4516      4518      4518      4519
      4518      4520      4518      4521      4521      4522      4521      4523
      4521      4524      4524      4525      4524      4526      4524      4550
      4550      4551      4550      4552      4552      4553      4552      4554
      4552      4555      4550      4556      4556      4557      4556      4558
      4556      4559      4559      4560      4559      4561      4559      4562
      4562      4563      4562      4564      4562      4565      4565      4566
      4565      4567      4567      4568      4567      4569      4567      4570
      4565      4571      4571      4572      4571      4573      4571      4574
      4575      4576      4575      4577      4575      4578      4575      4579
      4579      4580      4579      4581      4579      4582      4582      4583
      4582      4584      4582      4588      4590      4589      4588      4585
      4585      4589      4585      4586      4585      4587      4590      4591
      4590      4592      4590      4593      4593      4594      4593      4601
      4593      4595      4601      4602      4601      4603      4601      4604
      4595      4596      4596      4598      4596      4597      4598      4599
      4598      4600      4598      4610      4610      4611      4610      4612
      4610      4613      4613      4614      4613      4615      4613      4616
      4616      4617      4616      4618      4616      4619      4619      4620
      4619      4621      4619      4622      4622      4623      4622      4624
      4622      4625      4625      4626      4625      4627      4625      4628
      4628      4629      4628      4630      4630      4631      4630      4632
      4632      4633      4632      4634      4632      4635      4635      4636
      4635      4637      4635      4638      4638      4639      4638      4640
      4638      4641      4641      4642      4641      4643      4641      4644
      4644      4645      4644      4646      4644      4647      4647      4648
      4647      4649      4647      4650      4650      4651      4650      4652
      4650      4653      4653      4654      4653      4655      4653      4656
      4604      4605      4605      4607      4605      4606      4607      4608
      4607      4609      4607      4657      4657      4658      4657      4659
      4657      4660      4660      4661      4660      4662      4660      4663
      4663      4664      4663      4665      4663      4666      4666      4667
      4666      4668      4666      4669      4669      4670      4669      4671
      4669      4672      4672      4673      4672      4674      4672      4675
      4675      4676      4675      4677      4675      4678      4678      4679
      4678      4680      4678      4681      4681      4682      4681      4683
      4681      4684      4684      4685      4684      4686      4684      4687
      4687      4688      4687      4689      4687      4690      4690      4691
      4690      4692      4690      4693      4693      4694      4693      4695
      4693      4696      4696      4697      4696      4698      4696      4699
      4699      4700      4699      4701      4699      4702      4702      4703
      4702      4704      4702      4705      4706      4707      4706      4711
      4706      4715      4707      4708      4707      4709      4707      4710
      4711      4712      4711      4713      4711      4714      4715      4716
      4715      4717      4715      4718      4706      4719      4719      4720
      4719      4721      4719      4722      4722      4723      4722      4724
      4722      4728      4729      4730      4728      4725      4725      4729
      4725      4726      4725      4727      4730      4731      4730      4732
      4730      4733      4733      4734      4733      4741      4733      4735
      4741      4742      4741      4743      4741      4744      4735      4736
      4736      4738      4736      4737      4738      4739      4738      4740
      4738      4750      4750      4751      4750      4752      4750      4753
      4753      4754      4753      4755      4753      4756      4756      4757
      4756      4758      4756      4759      4759      4760      4759      4761
      4759      4762      4762      4763      4762      4764      4762      4765
      4765      4766      4765      4767      4765      4768      4768      4769
      4768      4770      4770      4771      4770      4772      4772      4773
      4772      4774      4772      4775      4775      4776      4775      4777
      4777      4778      4777      4779      4779      4780      4779      4781
      4779      4782      4782      4783      4782      4784      4782      4785
      4785      4786      4785      4787      4785      4788      4788      4789
      4788      4790      4788      4791      4791      4792      4791      4793
      4791      4794      4744      4745      4745      4747      4745      4746
      4747      4748      4747      4749      4747      4795      4795      4796
      4795      4797      4795      4798      4798      4799      4798      4800
      4798      4801      4801      4802      4801      4803      4801      4804
      4804      4805      4804      4806      4804      4807      4807      4808
      4807      4809      4807      4810      4810      4811      4810      4812
      4810      4813      4813      4814      4813      4815      4813      4816
      4816      4817      4816      4818      4816      4819      4819      4820
      4819      4821      4819      4822      4822      4823      4822      4824
      4822      4825      4825      4826      4825      4827      4825      4828
      4828      4829      4828      4830      4828      4831      4831      4832
      4831      4833      4831      4834      4834      4835      4834      4836
      4834      4837      4837      4838      4837      4839      4837      4840
      4840      4841      4840      4842      4840      4843      4844      4845
      4844      4846      4844      4847      4844      4848      4848      4849
      4848      4850      4848      4851      4851      4852      4851      4853
      4851      4857      4859      4858      4857      4854      4854      4858
      4854      4855      4854      4856      4859      4860      4859      4861
      4859      4862      4862      4863      4862      4870      4862      4864
      4870      4871      4870      4872      4870      4873      4864      4865
      4865      4867      4865      4866      4867      4868      4867      4869
      4867      4879      4879      4880      4879      4881      4879      4882
      4882      4883      4882      4884      4882      4885      4885      4886
      4885      4887      4885      4888      4888      4889      4888      4890
      4888      4891      4891      4892      4891      4893      4891      4894
      4894      4895      4894      4896      4894      4897      4897      4898
      4897      4899      4899      4900      4899      4901      4901      4902
      4901      4903      4901      4904      4904      4905      4904      4906
      4904      4907      4907      4908      4907      4909      4907      4910
      4910      4911      4910      4912      4910      4913      4913      4914
      4913      4915      4913      4916      4916      4917      4916      4918
      4916      4919      4919      4920      4919      4921      4919      4922
      4922      4923      4922      4924      4922      4925      4873      4874
      4874      4876      4874      4875      4876      4877      4876      4878
      4876      4926      4926      4927      4926      4928      4926      4929
      4929      4930      4929      4931      4929      4932      4932      4933
      4932      4934      4932      4935      4935      4936      4935      4937
      4935      4938      4938      4939      4938      4940      4938      4941
      4941      4942      4941      4943      4941      4944      4944      4945
      4944      4946      4944      4947      4947      4948      4947      4949
      4947      4950      4950      4951      4950      4952      4950      4953
      4953      4954      4953      4955      4953      4956      4956      4957
      4956      4958      4956      4959      4959      4960      4959      4961
      4959      4962      4962      4963      4962      4964      4962      4965
      4965      4966      4965      4967      4965      4968      4968      4969
      4968      4970      4968      4971      4971      4972      4971      4973
      4971      4974      4975      4979      4975      4983      4975      4987
      4979      4980      4979      4981      4979      4982      4983      4984
      4983      4985      4983      4986      4987      4988      4987      4989
      4987      4990      4975      4976      4976      4977      4976      4978
      4976      4991      4991      4992      4991      4993      4991      4997
      4998      4999      4997      4994      4994      4998      4994      4995
      4994      4996      4999      5000      4999      5001      4999      5002
      5002      5003      5002      5010      5002      5004      5010      5011
      5010      5012      5010      5013      5004      5005      5005      5007
      5005      5006      5007      5008      5007      5009      5007      5019
      5019      5020      5019      5021      5019      5022      5022      5023
      5022      5024      5022      5025      5025      5026      5025      5027
      5025      5028      5028      5029      5028      5030      5028      5031
      5031      5032      5031      5033      5031      5034      5034      5035
      5034      5036      5034      5037      5037      5038      5037      5039
      5039      5040      5039      5041      5041      5042      5041      5043
      5041      5044      5044      5045      5044      5046      5044      5047
      5047      5048      5047      5049      5047      5050      5050      5051
      5050      5052      5050      5053      5053      5054      5053      5055
      5053      5056      5056      5057      5056      5058      5056      5059
      5059      5060      5059      5061      5059      5062      5062      5063
      5062      5064      5062      5065      5013      5014      5014      5016
      5014      5015      5016      5017      5016      5018      5016      5066
      5066      5067      5066      5068      5066      5069      5069      5070
      5069      5071      5069      5072      5072      5073      5072      5074
      5072      5075      5075      5076      5075      5077      5075      5078
      5078      5079      5078      5080      5078      5081      5081      5082
      5081      5083      5081      5084      5084      5085      5084      5086
      5084      5087      5087      5088      5087      5089      5087      5090
      5090      5091      5090      5092      5090      5093      5093      5094
      5093      5095      5093      5096      5096      5097      5096      5098
      5096      5099      5099      5100      5099      5101      5099      5102
      5102      5103      5102      5104      5102      5105      5105      5106
      5105      5107      5105      5108      5184      5185      5184      5186
      5184      5187      5184      5181      5181      5182      5181      5183
      5181      5178      5178      5179      5178      5180      5178      5175
      5175      5176      5175      5177      5175      5172      5172      5173
      5172      5174      5172      5169      5169      5170      5169      5171
      5169      5166      5166      5167      5166      5168      5166      5163
      5163      5164      5163      5165      5163      5160      5160      5161
      5160      5162      5160      5157      5157      5158      5157      5159
      5157      5154      5154      5155      5154      5156      5154      5151
      5151      5152      5151      5153      5151      5148      5148      5149
      5148      5150      5148      5146      5146      5147      5144      5145
      5144      5140      5140      5141      5140      5142      5142      5143
      5140      5138      5138      5139      5138      5133      5133      5134
      5133      5135      5133      5131      5131      5128      5132      5128
      5129      5128      5130      5128      5132      5125      5125      5126
      5125      5127      5125      5122      5122      5123      5122      5124
      5122      5109      5109      5118      5109      5114      5109      5110
      5118      5119      5118      5120      5118      5121      5114      5115
      5114      5116      5114      5117      5110      5111      5110      5112
      5110      5113      5138      5136      5136      5137      5136      5188
      5188      5190      5190      5191      5190      5192      5190      5193
      5193      5194      5193      5195      5193      5196      5196      5197
      5196      5198      5196      5199      5199      5200      5199      5201
      5199      5202      5202      5203      5202      5204      5202      5205
      5205      5206      5205      5207      5205      5208      5208      5209
      5208      5210      5208      5211      5211      5212      5213      5214
      5213      5215      5215      5216      5215      5217      5215      5218
      5218      5219      5218      5220      5218      5221      5221      5222
      5221      5223      5221      5224      5224      5225      5224      5226
      5224      5227      5227      5228      5227      5229      5227      5230
      5230      5231      5230      5232      5230      5233      5233      5234
      5233      5235      5233      5236      5236      5237      5236      5238
      5236      5239      5144      5146      5211      5213      5188      5189
      5315      5316      5315      5317      5315      5318      5315      5312
      5312      5313      5312      5314      5312      5309      5309      5310
      5309      5311      5309      5306      5306      5307      5306      5308
      5306      5303      5303      5304      5303      5305      5303      5300
      5300      5301      5300      5302      5300      5297      5297      5298
      5297      5299      5297      5294      5294      5295      5294      5296
      5294      5291      5291      5292      5291      5293      5291      5288
      5288      5289      5288      5290      5288      5285      5285      5286
      5285      5287      5285      5282      5282      5283      5282      5284
      5282      5279      5279      5280      5279      5281      5279      5277
      5277      5278      5275      5276      5275      5271      5271      5272
      5271      5273      5273      5274      5271      5269      5269      5270
      5269      5264      5264      5265      5264      5266      5264      5262
      5262      5259      5263      5259      5260      5259      5261      5259
      5263      5256      5256      5257      5256      5258      5256      5253
      5253      5254      5253      5255      5253      5240      5240      5249
      5240      5245      5240      5241      5249      5250      5249      5251
      5249      5252      5245      5246      5245      5247      5245      5248
      5241      5242      5241      5243      5241      5244      5269      5267
      5267      5268      5267      5319      5319      5321      5321      5322
      5321      5323      5321      5324      5324      5325      5324      5326
      5324      5327      5327      5328      5327      5329      5327      5330
      5330      5331      5330      5332      5330      5333      5333      5334
      5333      5335      5333      5336      5336      5337      5336      5338
      5336      5339      5339      5340      5339      5341      5339      5342
      5342      5343      5344      5345      5344      5346      5346      5347
      5346      5348      5346      5349      5349      5350      5349      5351
      5349      5352      5352      5353      5352      5354      5352      5355
      5355      5356      5355      5357      5355      5358      5358      5359
      5358      5360      5358      5361      5361      5362      5361      5363
      5361      5364      5364      5365      5364      5366      5364      5367
      5367      5368      5367      5369      5367      5370      5275      5277
      5342      5344      5319      5320      5371      5373      5371      5372
      5373      5374      5371      5417      5417      5418      5417      5419
      5417      5414      5414      5415      5414      5416      5371      5375
      5375      5376      5375      5377      5375      5378      5378      5409
      5409      5414      5409      5410      5410      5411      5410      5412
      5410      5413      5378      5379      5379      5380      5379      5381
      5381      5382      5381      5383      5381      5384      5384      5385
      5384      5407      5407      5408      5407      5409      5384      5386
      5386      5387      5386      5396      5396      5401      5401      5402
      5401      5403      5401      5404      5404      5405      5404      5406
      5404      5407      5396      5397      5397      5398      5397      5399
      5397      5400      5386      5388      5388      5389      5388      5390
      5388      5391      5391      5392      5391      5393      5391      5394
      5394      5395      5394      5396      5394      5420      5420      5421
      5420      5422      5422      5423      5422      5424      5422      5425
      5420      5426      5426      5427      5426      5428      5426      5429
      5429      5430      5429      5431      5429      5432      5432      5433
      5432      5434      5432      5435      5435      5436      5435      5437
      5437      5438      5437      5439      5437      5440      5435      5441
      5441      5442      5441      5443      5441      5444      5445      5447
      5445      5446      5447      5448      5445      5491      5491      5492
      5491      5493      5491      5488      5488      5489      5488      5490
      5445      5449      5449      5450      5449      5451      5449      5452
      5452      5483      5483      5488      5483      5484      5484      5485
      5484      5486      5484      5487      5452      5453      5453      5454
      5453      5455      5455      5456      5455      5457      5455      5458
      5458      5459      5458      5481      5481      5482      5481      5483
      5458      5460      5460      5461      5460      5470      5470      5475
      5475      5476      5475      5477      5475      5478      5478      5479
      5478      5480      5478      5481      5470      5471      5471      5472
      5471      5473      5471      5474      5460      5462      5462      5463
      5462      5464      5462      5465      5465      5466      5465      5467
      5465      5468      5468      5469      5468      5470      5468      5494
      5494      5495      5494      5496      5496      5497      5496      5498
      5496      5499      5494      5500      5500      5501      5500      5502
      5500      5503      5503      5504      5503      5505      5503      5506
      5506      5507      5506      5508      5506      5509      5509      5510
      5509      5511      5511      5512      5511      5513      5511      5514
      5509      5515      5515      5516      5515      5517      5515      5518
      5519      5521      5519      5520      5521      5522      5519      5565
      5565      5566      5565      5567      5565      5562      5562      5563
      5562      5564      5519      5523      5523      5524      5523      5525
      5523      5526      5526      5557      5557      5562      5557      5558
      5558      5559      5558      5560      5558      5561      5526      5527
      5527      5528      5527      5529      5529      5530      5529      5531
      5529      5532      5532      5533      5532      5555      5555      5556
      5555      5557      5532      5534      5534      5535      5534      5544
      5544      5549      5549      5550      5549      5551      5549      5552
      5552      5553      5552      5554      5552      5555      5544      5545
      5545      5546      5545      5547      5545      5548      5534      5536
      5536      5537      5536      5538      5536      5539      5539      5540
      5539      5541      5539      5542      5542      5543      5542      5544
      5542      5568      5568      5569      5568      5570      5570      5571
      5570      5572      5570      5573      5568      5574      5574      5575
      5574      5576      5574      5577      5577      5578      5577      5579
      5577      5580      5580      5581      5580      5582      5580      5583
      5583      5584      5583      5585      5585      5586      5585      5587
      5585      5588      5583      5589      5589      5590      5589      5591
      5589      5592      5593      5595      5593      5594      5595      5596
      5593      5639      5639      5640      5639      5641      5639      5636
      5636      5637      5636      5638      5593      5597      5597      5598
      5597      5599      5597      5600      5600      5631      5631      5636
      5631      5632      5632      5633      5632      5634      5632      5635
      5600      5601      5601      5602      5601      5603      5603      5604
      5603      5605      5603      5606      5606      5607      5606      5629
      5629      5630      5629      5631      5606      5608      5608      5609
      5608      5618      5618      5623      5623      5624      5623      5625
      5623      5626      5626      5627      5626      5628      5626      5629
      5618      5619      5619      5620      5619      5621      5619      5622
      5608      5610      5610      5611      5610      5612      5610      5613
      5613      5614      5613      5615      5613      5616      5616      5617
      5616      5618      5616      5642      5642      5643      5642      5644
      5644      5645      5644      5646      5644      5647      5642      5648
      5648      5649      5648      5650      5648      5651      5651      5652
      5651      5653      5651      5654      5654      5655      5654      5656
      5654      5657      5657      5658      5657      5659      5659      5660
      5659      5661      5659      5662      5657      5663      5663      5664
      5663      5665      5663      5666      5667      5668      5667      5669
      5667      5670      5667      5671      5671      5672      5671      5673
      5671      5674      5674      5675      5674      5676      5674      5680
      5682      5681      5680      5677      5677      5681      5677      5678
      5677      5679      5682      5683      5682      5684      5682      5685
      5685      5686      5685      5693      5685      5687      5693      5694
      5693      5695      5693      5696      5687      5688      5688      5690
      5688      5689      5690      5691      5690      5692      5690      5702
      5702      5703      5702      5704      5702      5705      5705      5706
      5705      5707      5705      5708      5708      5709      5708      5710
      5710      5711      5710      5712      5712      5713      5712      5714
      5712      5715      5715      5716      5715      5717      5717      5718
      5717      5719      5719      5720      5719      5721      5719      5722
      5722      5723      5722      5724      5724      5725      5724      5726
      5726      5727      5726      5728      5726      5729      5729      5730
      5729      5731      5731      5732      5731      5733      5733      5734
      5733      5735      5733      5736      5736      5737      5736      5738
      5736      5739      5739      5740      5739      5741      5739      5742
      5742      5743      5742      5744      5742      5745      5745      5746
      5745      5747      5745      5748      5696      5697      5697      5699
      5697      5698      5699      5700      5699      5701      5699      5749
      5749      5750      5749      5751      5749      5752      5752      5753
      5752      5754      5752      5755      5755      5756      5755      5757
      5755      5758      5758      5759      5758      5760      5758      5761
      5761      5762      5761      5763      5761      5764      5764      5765
      5764      5766      5764      5767      5767      5768      5767      5769
      5767      5770      5770      5771      5770      5772      5770      5773
      5773      5774      5773      5775      5773      5776      5776      5777
      5776      5778      5776      5779      5779      5780      5779      5781
      5779      5782      5782      5783      5782      5784      5782      5785
      5785      5786      5785      5787      5785      5788      5788      5789
      5788      5790      5788      5791      5791      5792      5791      5793
      5791      5794      5794      5795      5794      5796      5794      5797
      5798      5800      5798      5799      5800      5801      5798      5844
      5844      5845      5844      5846      5844      5841      5841      5842
      5841      5843      5798      5802      5802      5803      5802      5804
      5802      5805      5805      5836      5836      5841      5836      5837
      5837      5838      5837      5839      5837      5840      5805      5806
      5806      5807      5806      5808      5808      5809      5808      5810
      5808      5811      5811      5812      5811      5834      5834      5835
      5834      5836      5811      5813      5813      5814      5813      5823
      5823      5828      5828      5829      5828      5830      5828      5831
      5831      5832      5831      5833      5831      5834      5823      5824
      5824      5825      5824      5826      5824      5827      5813      5815
      5815      5816      5815      5817      5815      5818      5818      5819
      5818      5820      5818      5821      5821      5822      5821      5823
      5821      5847      5847      5848      5847      5849      5849      5850
      5849      5851      5849      5852      5847      5853      5853      5854
      5853      5855      5853      5856      5856      5857      5856      5858
      5856      5859      5859      5860      5859      5861      5859      5862
      5862      5863      5862      5864      5864      5865      5864      5866
      5864      5867      5862      5868      5868      5869      5868      5870
      5868      5871      5872      5873      5872      5874      5872      5875
      5872      5876      5880      5878      5878      5876      5878      5879
      5876      5877      5876      5881      5889      5888      5881      5882
      5881      5883      5881      5887      5887      5884      5884      5888
      5884      5885      5884      5886      5889      5890      5889      5891
      5889      5892      5892      5893      5892      5900      5892      5894
      5900      5901      5900      5902      5900      5903      5894      5895
      5895      5897      5895      5896      5897      5898      5897      5899
      5897      5909      5909      5910      5909      5911      5909      5912
      5912      5913      5912      5914      5912      5915      5915      5916
      5915      5917      5917      5918      5917      5919      5919      5920
      5919      5921      5919      5922      5922      5923      5922      5924
      5924      5925      5924      5926      5926      5927      5926      5928
      5926      5929      5929      5930      5929      5931      5931      5932
      5931      5933      5933      5934      5933      5935      5933      5936
      5936      5937      5936      5938      5938      5939      5938      5940
      5940      5941      5940      5942      5940      5943      5943      5944
      5943      5945      5943      5946      5946      5947      5946      5948
      5946      5949      5949      5950      5949      5951      5949      5952
      5952      5953      5952      5954      5952      5955      5903      5904
      5904      5906      5904      5905      5906      5907      5906      5908
      5906      5956      5956      5957      5956      5958      5956      5959
      5959      5960      5959      5961      5959      5962      5962      5963
      5962      5964      5962      5965      5965      5966      5965      5967
      5965      5968      5968      5969      5968      5970      5968      5971
      5971      5972      5971      5973      5971      5974      5974      5975
      5974      5976      5974      5977      5977      5978      5977      5979
      5977      5980      5980      5981      5980      5982      5980      5983
      5983      5984      5983      5985      5983      5986      5986      5987
      5986      5988      5986      5989      5989      5990      5989      5991
      5989      5992      5992      5993      5992      5994      5992      5995
      5995      5996      5995      5997      5995      5998      5998      5999
      5998      6000      5998      6001      6001      6002      6001      6003
      6001      6004      6005      6007      6005      6006      6007      6008
      6005      6051      6051      6052      6051      6053      6051      6048
      6048      6049      6048      6050      6005      6009      6009      6010
      6009      6011      6009      6012      6012      6043      6043      6048
      6043      6044      6044      6045      6044      6046      6044      6047
      6012      6013      6013      6014      6013      6015      6015      6016
      6015      6017      6015      6018      6018      6019      6018      6041
      6041      6042      6041      6043      6018      6020      6020      6021
      6020      6030      6030      6035      6035      6036      6035      6037
      6035      6038      6038      6039      6038      6040      6038      6041
      6030      6031      6031      6032      6031      6033      6031      6034
      6020      6022      6022      6023      6022      6024      6022      6025
      6025      6026      6025      6027      6025      6028      6028      6029
      6028      6030      6028      6054      6054      6055      6054      6056
      6056      6057      6056      6058      6056      6059      6054      6060
      6060      6061      6060      6062      6060      6063      6063      6064
      6063      6065      6063      6066      6066      6067      6066      6068
      6066      6069      6069      6070      6069      6071      6071      6072
      6071      6073      6071      6074      6069      6075      6075      6076
      6075      6077      6075      6078      6079      6081      6079      6080
      6081      6082      6079      6125      6125      6126      6125      6127
      6125      6122      6122      6123      6122      6124      6079      6083
      6083      6084      6083      6085      6083      6086      6086      6117
      6117      6122      6117      6118      6118      6119      6118      6120
      6118      6121      6086      6087      6087      6088      6087      6089
      6089      6090      6089      6091      6089      6092      6092      6093
      6092      6115      6115      6116      6115      6117      6092      6094
      6094      6095      6094      6104      6104      6109      6109      6110
      6109      6111      6109      6112      6112      6113      6112      6114
      6112      6115      6104      6105      6105      6106      6105      6107
      6105      6108      6094      6096      6096      6097      6096      6098
      6096      6099      6099      6100      6099      6101      6099      6102
      6102      6103      6102      6104      6102      6128      6128      6129
      6128      6130      6130      6131      6130      6132      6130      6133
      6128      6134      6134      6135      6134      6136      6134      6137
      6137      6138      6137      6139      6137      6140      6140      6141
      6140      6142      6140      6143      6143      6144      6143      6145
      6145      6146      6145      6147      6145      6148      6143      6149
      6149      6150      6149      6151      6149      6152      6153      6154
      6153      6155      6153      6156      6153      6157      6157      6158
      6157      6159      6157      6160      6160      6161      6160      6162
      6160      6166      6168      6167      6166      6163      6163      6167
      6163      6164      6163      6165      6168      6169      6168      6170
      6168      6171      6171      6172      6171      6179      6171      6173
      6179      6180      6179      6181      6179      6182      6173      6174
      6174      6176      6174      6175      6176      6177      6176      6178
      6176      6188      6188      6189      6188      6190      6188      6191
      6191      6192      6191      6193      6191      6194      6194      6195
      6194      6196      6196      6197      6196      6198      6198      6199
      6198      6200      6198      6201      6201      6202      6201      6203
      6203      6204      6203      6205      6205      6206      6205      6207
      6205      6208      6208      6209      6208      6210      6210      6211
      6210      6212      6212      6213      6212      6214      6212      6215
      6215      6216      6215      6217      6217      6218      6217      6219
      6219      6220      6219      6221      6219      6222      6222      6223
      6222      6224      6222      6225      6225      6226      6225      6227
      6225      6228      6228      6229      6228      6230      6228      6231
      6231      6232      6231      6233      6231      6234      6182      6183
      6183      6185      6183      6184      6185      6186      6185      6187
      6185      6235      6235      6236      6235      6237      6235      6238
      6238      6239      6238      6240      6238      6241      6241      6242
      6241      6243      6241      6244      6244      6245      6244      6246
      6244      6247      6247      6248      6247      6249      6247      6250
      6250      6251      6250      6252      6250      6253      6253      6254
      6253      6255      6253      6256      6256      6257      6256      6258
      6256      6259      6259      6260      6259      6261      6259      6262
      6262      6263      6262      6264      6262      6265      6265      6266
      6265      6267      6265      6268      6268      6269      6268      6270
      6268      6271      6271      6272      6271      6273      6271      6274
      6274      6275      6274      6276      6274      6277      6277      6278
      6277      6279      6277      6280      6280      6281      6280      6282
      6280      6283      6284      6285      6284      6286      6284      6287
      6284      6288      6288      6289      6288      6290      6288      6291
      6291      6292      6291      6293      6291      6297      6299      6298
      6297      6294      6294      6298      6294      6295      6294      6296
      6299      6300      6299      6301      6299      6302      6302      6303
      6302      6310      6302      6304      6310      6311      6310      6312
      6310      6313      6304      6305      6305      6307      6305      6306
      6307      6308      6307      6309      6307      6319      6319      6320
      6319      6321      6319      6322      6322      6323      6322      6324
      6322      6325      6325      6326      6325      6327      6327      6328
      6327      6329      6329      6330      6329      6331      6329      6332
      6332      6333      6332      6334      6334      6335      6334      6336
      6336      6337      6336      6338      6336      6339      6339      6340
      6339      6341      6341      6342      6341      6343      6343      6344
      6343      6345      6343      6346      6346      6347      6346      6348
      6348      6349      6348      6350      6350      6351      6350      6352
      6350      6353      6353      6354      6353      6355      6353      6356
      6356      6357      6356      6358      6356      6359      6359      6360
      6359      6361      6359      6362      6362      6363      6362      6364
      6362      6365      6313      6314      6314      6316      6314      6315
      6316      6317      6316      6318      6316      6366      6366      6367
      6366      6368      6366      6369      6369      6370      6369      6371
      6369      6372      6372      6373      6372      6374      6372      6375
      6375      6376      6375      6377      6375      6378      6378      6379
      6378      6380      6378      6381      6381      6382      6381      6383
      6381      6384      6384      6385      6384      6386      6384      6387
      6387      6388      6387      6389      6387      6390      6390      6391
      6390      6392      6390      6393      6393      6394      6393      6395
      6393      6396      6396      6397      6396      6398      6396      6399
      6399      6400      6399      6401      6399      6402      6402      6403
      6402      6404      6402      6405      6405      6406      6405      6407
      6405      6408      6408      6409      6408      6410      6408      6411
      6411      6412      6411      6413      6411      6414      6490      6491
      6490      6492      6490      6493      6490      6487      6487      6488
      6487      6489      6487      6484      6484      6485      6484      6486
      6484      6481      6481      6482      6481      6483      6481      6478
      6478      6479      6478      6480      6478      6475      6475      6476
      6475      6477      6475      6472      6472      6473      6472      6474
      6472      6469      6469      6470      6469      6471      6469      6466
      6466      6467      6466      6468      6466      6463      6463      6464
      6463      6465      6463      6460      6460      6461      6460      6462
      6460      6457      6457      6458      6457      6459      6457      6454
      6454      6455      6454      6456      6454      6452      6452      6453
      6450      6451      6450      6446      6446      6447      6446      6448
      6448      6449      6446      6444      6444      6445      6444      6439
      6439      6440      6439      6441      6439      6437      6437      6434
      6438      6434      6435      6434      6436      6434      6438      6431
      6431      6432      6431      6433      6431      6428      6428      6429
      6428      6430      6428      6415      6415      6424      6415      6420
      6415      6416      6424      6425      6424      6426      6424      6427
      6420      6421      6420      6422      6420      6423      6416      6417
      6416      6418      6416      6419      6444      6442      6442      6443
      6442      6494      6494      6496      6496      6497      6496      6498
      6496      6499      6499      6500      6499      6501      6499      6502
      6502      6503      6502      6504      6502      6505      6505      6506
      6505      6507      6505      6508      6508      6509      6508      6510
      6508      6511      6511      6512      6511      6513      6511      6514
      6514      6515      6514      6516      6514      6517      6517      6518
      6519      6520      6519      6521      6521      6522      6521      6523
      6521      6524      6524      6525      6524      6526      6524      6527
      6527      6528      6527      6529      6527      6530      6530      6531
      6530      6532      6530      6533      6533      6534      6533      6535
      6533      6536      6536      6537      6536      6538      6536      6539
      6539      6540      6539      6541      6539      6542      6542      6543
      6542      6544      6542      6545      6450      6452      6517      6519
      6494      6495      6546      6547      6546      6551      6546      6555
      6547      6548      6547      6549      6547      6550      6551      6552
      6551      6553      6551      6554      6555      6556      6555      6557
      6555      6558      6546      6559      6559      6560      6559      6561
      6559      6562      6562      6563      6562      6564      6562      6568
      6569      6570      6568      6565      6565      6569      6565      6566
      6565      6567      6570      6571      6570      6572      6570      6573
      6573      6574      6573      6581      6573      6575      6581      6582
      6581      6583      6581      6584      6575      6576      6576      6578
      6576      6577      6578      6579      6578      6580      6578      6590
      6590      6591      6590      6592      6590      6593      6593      6594
      6593      6595      6593      6596      6596      6597      6596      6598
      6596      6599      6599      6600      6599      6601      6599      6602
      6602      6603      6602      6604      6602      6605      6605      6606
      6605      6607      6605      6608      6608      6609      6608      6610
      6610      6611      6610      6612      6612      6613      6612      6614
      6612      6615      6615      6616      6615      6617      6617      6618
      6617      6619      6619      6620      6619      6621      6619      6622
      6622      6623      6622      6624      6622      6625      6625      6626
      6625      6627      6625      6628      6628      6629      6628      6630
      6628      6631      6631      6632      6631      6633      6631      6634
      6584      6585      6585      6587      6585      6586      6587      6588
      6587      6589      6587      6635      6635      6636      6635      6637
      6635      6638      6638      6639      6638      6640      6638      6641
      6641      6642      6641      6643      6641      6644      6644      6645
      6644      6646      6644      6647      6647      6648      6647      6649
      6647      6650      6650      6651      6650      6652      6650      6653
      6653      6654      6653      6655      6653      6656      6656      6657
      6656      6658      6656      6659      6659      6660      6659      6661
      6659      6662      6662      6663      6662      6664      6662      6665
      6665      6666      6665      6667      6665      6668      6668      6669
      6668      6670      6668      6671      6671      6672      6671      6673
      6671      6674      6674      6675      6674      6676      6674      6677
      6677      6678      6677      6679      6677      6680      6680      6681
      6680      6682      6680      6683      6684      6688      6684      6692
      6684      6696      6688      6689      6688      6690      6688      6691
      6692      6693      6692      6694      6692      6695      6696      6697
      6696      6698      6696      6699      6684      6685      6685      6686
      6685      6687      6685      6700      6700      6701      6700      6702
      6700      6706      6707      6708      6706      6703      6703      6707
      6703      6704      6703      6705      6708      6709      6708      6710
      6708      6711      6711      6712      6711      6719      6711      6713
      6719      6720      6719      6721      6719      6722      6713      6714
      6714      6716      6714      6715      6716      6717      6716      6718
      6716      6728      6728      6729      6728      6730      6728      6731
      6731      6732      6731      6733      6731      6734      6734      6735
      6734      6736      6736      6737      6736      6738      6738      6739
      6738      6740      6738      6741      6741      6742      6741      6743
      6743      6744      6743      6745      6745      6746      6745      6747
      6745      6748      6748      6749      6748      6750      6750      6751
      6750      6752      6752      6753      6752      6754      6752      6755
      6755      6756      6755      6757      6757      6758      6757      6759
      6759      6760      6759      6761      6759      6762      6762      6763
      6762      6764      6762      6765      6765      6766      6765      6767
      6765      6768      6768      6769      6768      6770      6768      6771
      6771      6772      6771      6773      6771      6774      6722      6723
      6723      6725      6723      6724      6725      6726      6725      6727
      6725      6775      6775      6776      6775      6777      6775      6778
      6778      6779      6778      6780      6778      6781      6781      6782
      6781      6783      6781      6784      6784      6785      6784      6786
      6784      6787      6787      6788      6787      6789      6787      6790
      6790      6791      6790      6792      6790      6793      6793      6794
      6793      6795      6793      6796      6796      6797      6796      6798
      6796      6799      6799      6800      6799      6801      6799      6802
      6802      6803      6802      6804      6802      6805      6805      6806
      6805      6807      6805      6808      6808      6809      6808      6810
      6808      6811      6811      6812      6811      6813      6811      6814
      6814      6815      6814      6816      6814      6817      6817      6818
      6817      6819      6817      6820      6820      6821      6820      6822
      6820      6823      6824      6825      6824      6826      6824      6827
      6824      6828      6828      6829      6828      6830      6828      6831
      6831      6832      6831      6833      6831      6837      6839      6838
      6837      6834      6834      6838      6834      6835      6834      6836
      6839      6840      6839      6841      6839      6842      6842      6843
      6842      6850      6842      6844      6850      6851      6850      6852
      6850      6853      6844      6845      6845      6847      6845      6846
      6847      6848      6847      6849      6847      6859      6859      6860
      6859      6861      6859      6862      6862      6863      6862      6864
      6862      6865      6865      6866      6865      6867      6867      6868
      6867      6869      6869      6870      6869      6871      6869      6872
      6872      6873      6872      6874      6874      6875      6874      6876
      6876      6877      6876      6878      6876      6879      6879      6880
      6879      6881      6881      6882      6881      6883      6883      6884
      6883      6885      6883      6886      6886      6887      6886      6888
      6888      6889      6888      6890      6890      6891      6890      6892
      6890      6893      6893      6894      6893      6895      6893      6896
      6896      6897      6896      6898      6896      6899      6899      6900
      6899      6901      6899      6902      6902      6903      6902      6904
      6902      6905      6853      6854      6854      6856      6854      6855
      6856      6857      6856      6858      6856      6906      6906      6907
      6906      6908      6906      6909      6909      6910      6909      6911
      6909      6912      6912      6913      6912      6914      6912      6915
      6915      6916      6915      6917      6915      6918      6918      6919
      6918      6920      6918      6921      6921      6922      6921      6923
      6921      6924      6924      6925      6924      6926      6924      6927
      6927      6928      6927      6929      6927      6930      6930      6931
      6930      6932      6930      6933      6933      6934      6933      6935
      6933      6936      6936      6937      6936      6938      6936      6939
      6939      6940      6939      6941      6939      6942      6942      6943
      6942      6944      6942      6945      6945      6946      6945      6947
      6945      6948      6948      6949      6948      6950      6948      6951
      6951      6952      6951      6953      6951      6954      6955      6956
      6955      6957      6955      6958      6955      6959      6959      6960
      6959      6961      6959      6962      6962      6963      6962      6964
      6962      6968      6970      6969      6968      6965      6965      6969
      6965      6966      6965      6967      6970      6971      6970      6972
      6970      6973      6973      6974      6973      6981      6973      6975
      6981      6982      6981      6983      6981      6984      6975      6976
      6976      6978      6976      6977      6978      6979      6978      6980
      6978      6990      6990      6991      6990      6992      6990      6993
      6993      6994      6993      6995      6993      6996      6996      6997
      6996      6998      6998      6999      6998      7000      7000      7001
      7000      7002      7000      7003      7003      7004      7003      7005
      7005      7006      7005      7007      7007      7008      7007      7009
      7007      7010      7010      7011      7010      7012      7012      7013
      7012      7014      7014      7015      7014      7016      7014      7017
      7017      7018      7017      7019      7019      7020      7019      7021
      7021      7022      7021      7023      7021      7024      7024      7025
      7024      7026      7024      7027      7027      7028      7027      7029
      7027      7030      7030      7031      7030      7032      7030      7033
      7033      7034      7033      7035      7033      7036      6984      6985
      6985      6987      6985      6986      6987      6988      6987      6989
      6987      7037      7037      7038      7037      7039      7037      7040
      7040      7041      7040      7042      7040      7043      7043      7044
      7043      7045      7043      7046      7046      7047      7046      7048
      7046      7049      7049      7050      7049      7051      7049      7052
      7052      7053      7052      7054      7052      7055      7055      7056
      7055      7057      7055      7058      7058      7059      7058      7060
      7058      7061      7061      7062      7061      7063      7061      7064
      7064      7065      7064      7066      7064      7067      7067      7068
      7067      7069      7067      7070      7070      7071      7070      7072
      7070      7073      7073      7074      7073      7075      7073      7076
      7076      7077      7076      7078      7076      7079      7079      7080
      7079      7081      7079      7082      7082      7083      7082      7084
      7082      7085      7161      7162      7161      7163      7161      7164
      7161      7158      7158      7159      7158      7160      7158      7155
      7155      7156      7155      7157      7155      7152      7152      7153
      7152      7154      7152      7149      7149      7150      7149      7151
      7149      7146      7146      7147      7146      7148      7146      7143
      7143      7144      7143      7145      7143      7140      7140      7141
      7140      7142      7140      7137      7137      7138      7137      7139
      7137      7134      7134      7135      7134      7136      7134      7131
      7131      7132      7131      7133      7131      7128      7128      7129
      7128      7130      7128      7125      7125      7126      7125      7127
      7125      7123      7123      7124      7121      7122      7121      7117
      7117      7118      7117      7119      7119      7120      7117      7115
      7115      7116      7115      7110      7110      7111      7110      7112
      7110      7108      7108      7105      7109      7105      7106      7105
      7107      7105      7109      7102      7102      7103      7102      7104
      7102      7099      7099      7100      7099      7101      7099      7086
      7086      7095      7086      7091      7086      7087      7095      7096
      7095      7097      7095      7098      7091      7092      7091      7093
      7091      7094      7087      7088      7087      7089      7087      7090
      7115      7113      7113      7114      7113      7165      7165      7167
      7167      7168      7167      7169      7167      7170      7170      7171
      7170      7172      7170      7173      7173      7174      7173      7175
      7173      7176      7176      7177      7176      7178      7176      7179
      7179      7180      7179      7181      7179      7182      7182      7183
      7182      7184      7182      7185      7185      7186      7185      7187
      7185      7188      7188      7189      7190      7191      7190      7192
      7192      7193      7192      7194      7192      7195      7195      7196
      7195      7197      7195      7198      7198      7199      7198      7200
      7198      7201      7201      7202      7201      7203      7201      7204
      7204      7205      7204      7206      7204      7207      7207      7208
      7207      7209      7207      7210      7210      7211      7210      7212
      7210      7213      7213      7214      7213      7215      7213      7216
      7121      7123      7188      7190      7165      7166      7217      7219
      7217      7218      7219      7220      7217      7263      7263      7264
      7263      7265      7263      7260      7260      7261      7260      7262
      7217      7221      7221      7222      7221      7223      7221      7224
      7224      7255      7255      7260      7255      7256      7256      7257
      7256      7258      7256      7259      7224      7225      7225      7226
      7225      7227      7227      7228      7227      7229      7227      7230
      7230      7231      7230      7253      7253      7254      7253      7255
      7230      7232      7232      7233      7232      7242      7242      7247
      7247      7248      7247      7249      7247      7250      7250      7251
      7250      7252      7250      7253      7242      7243      7243      7244
      7243      7245      7243      7246      7232      7234      7234      7235
      7234      7236      7234      7237      7237      7238      7237      7239
      7237      7240      7240      7241      7240      7242      7240      7266
      7266      7267      7266      7268      7268      7269      7268      7270
      7268      7271      7266      7272      7272      7273      7272      7274
      7272      7275      7275      7276      7275      7277      7275      7278
      7278      7279      7278      7280      7278      7281      7281      7282
      7281      7283      7283      7284      7283      7285      7283      7286
      7281      7287      7287      7288      7287      7289      7287      7290
      7291      7293      7291      7292      7293      7294      7291      7337
      7337      7338      7337      7339      7337      7334      7334      7335
      7334      7336      7291      7295      7295      7296      7295      7297
      7295      7298      7298      7329      7329      7334      7329      7330
      7330      7331      7330      7332      7330      7333      7298      7299
      7299      7300      7299      7301      7301      7302      7301      7303
      7301      7304      7304      7305      7304      7327      7327      7328
      7327      7329      7304      7306      7306      7307      7306      7316
      7316      7321      7321      7322      7321      7323      7321      7324
      7324      7325      7324      7326      7324      7327      7316      7317
      7317      7318      7317      7319      7317      7320      7306      7308
      7308      7309      7308      7310      7308      7311      7311      7312
      7311      7313      7311      7314      7314      7315      7314      7316
      7314      7340      7340      7341      7340      7342      7342      7343
      7342      7344      7342      7345      7340      7346      7346      7347
      7346      7348      7346      7349      7349      7350      7349      7351
      7349      7352      7352      7353      7352      7354      7352      7355
      7355      7356      7355      7357      7357      7358      7357      7359
      7357      7360      7355      7361      7361      7362      7361      7363
      7361      7364      7365      7366      7365      7367      7365      7368
      7365      7369      7373      7371      7371      7369      7371      7372
      7369      7370      7369      7374      7382      7381      7374      7375
      7374      7376      7374      7380      7380      7377      7377      7381
      7377      7378      7377      7379      7382      7383      7382      7384
      7382      7385      7385      7386      7385      7393      7385      7387
      7393      7394      7393      7395      7393      7396      7387      7388
      7388      7390      7388      7389      7390      7391      7390      7392
      7390      7402      7402      7403      7402      7404      7402      7405
      7405      7406      7405      7407      7405      7408      7408      7409
      7408      7410      7410      7411      7410      7412      7412      7413
      7412      7414      7412      7415      7415      7416      7415      7417
      7417      7418      7417      7419      7419      7420      7419      7421
      7419      7422      7422      7423      7422      7424      7424      7425
      7424      7426      7426      7427      7426      7428      7426      7429
      7429      7430      7429      7431      7431      7432      7431      7433
      7433      7434      7433      7435      7433      7436      7436      7437
      7436      7438      7436      7439      7439      7440      7439      7441
      7439      7442      7442      7443      7442      7444      7442      7445
      7445      7446      7445      7447      7445      7448      7396      7397
      7397      7399      7397      7398      7399      7400      7399      7401
      7399      7449      7449      7450      7449      7451      7449      7452
      7452      7453      7452      7454      7452      7455      7455      7456
      7455      7457      7455      7458      7458      7459      7458      7460
      7458      7461      7461      7462      7461      7463      7461      7464
      7464      7465      7464      7466      7464      7467      7467      7468
      7467      7469      7467      7470      7470      7471      7470      7472
      7470      7473      7473      7474      7473      7475      7473      7476
      7476      7477      7476      7478      7476      7479      7479      7480
      7479      7481      7479      7482      7482      7483      7482      7484
      7482      7485      7485      7486      7485      7487      7485      7488
      7488      7489      7488      7490      7488      7491      7491      7492
      7491      7493      7491      7494      7494      7495      7494      7496
      7494      7497      7498      7500      7498      7499      7500      7501
      7498      7544      7544      7545      7544      7546      7544      7541
      7541      7542      7541      7543      7498      7502      7502      7503
      7502      7504      7502      7505      7505      7536      7536      7541
      7536      7537      7537      7538      7537      7539      7537      7540
      7505      7506      7506      7507      7506      7508      7508      7509
      7508      7510      7508      7511      7511      7512      7511      7534
      7534      7535      7534      7536      7511      7513      7513      7514
      7513      7523      7523      7528      7528      7529      7528      7530
      7528      7531      7531      7532      7531      7533      7531      7534
      7523      7524      7524      7525      7524      7526      7524      7527
      7513      7515      7515      7516      7515      7517      7515      7518
      7518      7519      7518      7520      7518      7521      7521      7522
      7521      7523      7521      7547      7547      7548      7547      7549
      7549      7550      7549      7551      7549      7552      7547      7553
      7553      7554      7553      7555      7553      7556      7556      7557
      7556      7558      7556      7559      7559      7560      7559      7561
      7559      7562      7562      7563      7562      7564      7564      7565
      7564      7566      7564      7567      7562      7568      7568      7569
      7568      7570      7568      7571      7647      7648      7647      7649
      7647      7650      7647      7644      7644      7645      7644      7646
      7644      7641      7641      7642      7641      7643      7641      7638
      7638      7639      7638      7640      7638      7635      7635      7636
      7635      7637      7635      7632      7632      7633      7632      7634
      7632      7629      7629      7630      7629      7631      7629      7626
      7626      7627      7626      7628      7626      7623      7623      7624
      7623      7625      7623      7620      7620      7621      7620      7622
      7620      7617      7617      7618      7617      7619      7617      7614
      7614      7615      7614      7616      7614      7611      7611      7612
      7611      7613      7611      7609      7609      7610      7607      7608
      7607      7603      7603      7604      7603      7605      7605      7606
      7603      7601      7601      7602      7601      7596      7596      7597
      7596      7598      7596      7594      7594      7591      7595      7591
      7592      7591      7593      7591      7595      7588      7588      7589
      7588      7590      7588      7585      7585      7586      7585      7587
      7585      7572      7572      7581      7572      7577      7572      7573
      7581      7582      7581      7583      7581      7584      7577      7578
      7577      7579      7577      7580      7573      7574      7573      7575
      7573      7576      7601      7599      7599      7600      7599      7651
      7651      7653      7653      7654      7653      7655      7653      7656
      7656      7657      7656      7658      7656      7659      7659      7660
      7659      7661      7659      7662      7662      7663      7662      7664
      7662      7665      7665      7666      7665      7667      7665      7668
      7668      7669      7668      7670      7668      7671      7671      7672
      7671      7673      7671      7674      7674      7675      7676      7677
      7676      7678      7678      7679      7678      7680      7678      7681
      7681      7682      7681      7683      7681      7684      7684      7685
      7684      7686      7684      7687      7687      7688      7687      7689
      7687      7690      7690      7691      7690      7692      7690      7693
      7693      7694      7693      7695      7693      7696      7696      7697
      7696      7698      7696      7699      7699      7700      7699      7701
      7699      7702      7607      7609      7674      7676      7651      7652
      7703      7704      7703      7705      7703      7706      7703      7707
      7707      7708      7707      7709      7707      7710      7710      7711
      7710      7712      7710      7716      7718      7717      7716      7713
      7713      7717      7713      7714      7713      7715      7718      7719
      7718      7720      7718      7721      7721      7722      7721      7729
      7721      7723      7729      7730      7729      7731      7729      7732
      7723      7724      7724      7726      7724      7725      7726      7727
      7726      7728      7726      7738      7738      7739      7738      7740
      7738      7741      7741      7742      7741      7743      7741      7744
      7744      7745      7744      7746      7746      7747      7746      7748
      7748      7749      7748      7750      7748      7751      7751      7752
      7751      7753      7753      7754      7753      7755      7755      7756
      7755      7757      7755      7758      7758      7759      7758      7760
      7760      7761      7760      7762      7762      7763      7762      7764
      7762      7765      7765      7766      7765      7767      7767      7768
      7767      7769      7769      7770      7769      7771      7769      7772
      7772      7773      7772      7774      7772      7775      7775      7776
      7775      7777      7775      7778      7778      7779      7778      7780
      7778      7781      7781      7782      7781      7783      7781      7784
      7732      7733      7733      7735      7733      7734      7735      7736
      7735      7737      7735      7785      7785      7786      7785      7787
      7785      7788      7788      7789      7788      7790      7788      7791
      7791      7792      7791      7793      7791      7794      7794      7795
      7794      7796      7794      7797      7797      7798      7797      7799
      7797      7800      7800      7801      7800      7802      7800      7803
      7803      7804      7803      7805      7803      7806      7806      7807
      7806      7808      7806      7809      7809      7810      7809      7811
      7809      7812      7812      7813      7812      7814      7812      7815
      7815      7816      7815      7817      7815      7818      7818      7819
      7818      7820      7818      7821      7821      7822      7821      7823
      7821      7824      7824      7825      7824      7826      7824      7827
      7827      7828      7827      7829      7827      7830      7830      7831
      7830      7832      7830      7833      7834      7836      7834      7835
      7836      7837      7834      7880      7880      7881      7880      7882
      7880      7877      7877      7878      7877      7879      7834      7838
      7838      7839      7838      7840      7838      7841      7841      7872
      7872      7877      7872      7873      7873      7874      7873      7875
      7873      7876      7841      7842      7842      7843      7842      7844
      7844      7845      7844      7846      7844      7847      7847      7848
      7847      7870      7870      7871      7870      7872      7847      7849
      7849      7850      7849      7859      7859      7864      7864      7865
      7864      7866      7864      7867      7867      7868      7867      7869
      7867      7870      7859      7860      7860      7861      7860      7862
      7860      7863      7849      7851      7851      7852      7851      7853
      7851      7854      7854      7855      7854      7856      7854      7857
      7857      7858      7857      7859      7857      7883      7883      7884
      7883      7885      7885      7886      7885      7887      7885      7888
      7883      7889      7889      7890      7889      7891      7889      7892
      7892      7893      7892      7894      7892      7895      7895      7896
      7895      7897      7895      7898      7898      7899      7898      7900
      7900      7901      7900      7902      7900      7903      7898      7904
      7904      7905      7904      7906      7904      7907      7908      7912
      7908      7916      7908      7920      7912      7913      7912      7914
      7912      7915      7916      7917      7916      7918      7916      7919
      7920      7921      7920      7922      7920      7923      7908      7909
      7909      7910      7909      7911      7909      7924      7924      7925
      7924      7926      7924      7930      7931      7932      7930      7927
      7927      7931      7927      7928      7927      7929      7932      7933
      7932      7934      7932      7935      7935      7936      7935      7943
      7935      7937      7943      7944      7943      7945      7943      7946
      7937      7938      7938      7940      7938      7939      7940      7941
      7940      7942      7940      7952      7952      7953      7952      7954
      7952      7955      7955      7956      7955      7957      7955      7958
      7958      7959      7958      7960      7960      7961      7960      7962
      7962      7963      7962      7964      7962      7965      7965      7966
      7965      7967      7967      7968      7967      7969      7969      7970
      7969      7971      7969      7972      7972      7973      7972      7974
      7974      7975      7974      7976      7976      7977      7976      7978
      7976      7979      7979      7980      7979      7981      7981      7982
      7981      7983      7983      7984      7983      7985      7983      7986
      7986      7987      7986      7988      7986      7989      7989      7990
      7989      7991      7989      7992      7992      7993      7992      7994
      7992      7995      7995      7996      7995      7997      7995      7998
      7946      7947      7947      7949      7947      7948      7949      7950
      7949      7951      7949      7999      7999      8000      7999      8001
      7999      8002      8002      8003      8002      8004      8002      8005
      8005      8006      8005      8007      8005      8008      8008      8009
      8008      8010      8008      8011      8011      8012      8011      8013
      8011      8014      8014      8015      8014      8016      8014      8017
      8017      8018      8017      8019      8017      8020      8020      8021
      8020      8022      8020      8023      8023      8024      8023      8025
      8023      8026      8026      8027      8026      8028      8026      8029
      8029      8030      8029      8031      8029      8032      8032      8033
      8032      8034      8032      8035      8035      8036      8035      8037
      8035      8038      8038      8039      8038      8040      8038      8041
      8041      8042      8041      8043      8041      8044      8044      8045
      8044      8046      8044      8047      8123      8124      8123      8125
      8123      8126      8123      8120      8120      8121      8120      8122
      8120      8117      8117      8118      8117      8119      8117      8114
      8114      8115      8114      8116      8114      8111      8111      8112
      8111      8113      8111      8108      8108      8109      8108      8110
      8108      8105      8105      8106      8105      8107      8105      8102
      8102      8103      8102      8104      8102      8099      8099      8100
      8099      8101      8099      8096      8096      8097      8096      8098
      8096      8093      8093      8094      8093      8095      8093      8090
      8090      8091      8090      8092      8090      8087      8087      8088
      8087      8089      8087      8085      8085      8086      8083      8084
      8083      8079      8079      8080      8079      8081      8081      8082
      8079      8077      8077      8078      8077      8072      8072      8073
      8072      8074      8072      8070      8070      8067      8071      8067
      8068      8067      8069      8067      8071      8064      8064      8065
      8064      8066      8064      8061      8061      8062      8061      8063
      8061      8048      8048      8057      8048      8053      8048      8049
      8057      8058      8057      8059      8057      8060      8053      8054
      8053      8055      8053      8056      8049      8050      8049      8051
      8049      8052      8077      8075      8075      8076      8075      8127
      8127      8129      8129      8130      8129      8131      8129      8132
      8132      8133      8132      8134      8132      8135      8135      8136
      8135      8137      8135      8138      8138      8139      8138      8140
      8138      8141      8141      8142      8141      8143      8141      8144
      8144      8145      8144      8146      8144      8147      8147      8148
      8147      8149      8147      8150      8150      8151      8152      8153
      8152      8154      8154      8155      8154      8156      8154      8157
      8157      8158      8157      8159      8157      8160      8160      8161
      8160      8162      8160      8163      8163      8164      8163      8165
      8163      8166      8166      8167      8166      8168      8166      8169
      8169      8170      8169      8171      8169      8172      8172      8173
      8172      8174      8172      8175      8175      8176      8175      8177
      8175      8178      8083      8085      8150      8152      8127      8128
      8254      8255      8254      8256      8254      8257      8254      8251
      8251      8252      8251      8253      8251      8248      8248      8249
      8248      8250      8248      8245      8245      8246      8245      8247
      8245      8242      8242      8243      8242      8244      8242      8239
      8239      8240      8239      8241      8239      8236      8236      8237
      8236      8238      8236      8233      8233      8234      8233      8235
      8233      8230      8230      8231      8230      8232      8230      8227
      8227      8228      8227      8229      8227      8224      8224      8225
      8224      8226      8224      8221      8221      8222      8221      8223
      8221      8218      8218      8219      8218      8220      8218      8216
      8216      8217      8214      8215      8214      8210      8210      8211
      8210      8212      8212      8213      8210      8208      8208      8209
      8208      8203      8203      8204      8203      8205      8203      8201
      8201      8198      8202      8198      8199      8198      8200      8198
      8202      8195      8195      8196      8195      8197      8195      8192
      8192      8193      8192      8194      8192      8179      8179      8188
      8179      8184      8179      8180      8188      8189      8188      8190
      8188      8191      8184      8185      8184      8186      8184      8187
      8180      8181      8180      8182      8180      8183      8208      8206
      8206      8207      8206      8258      8258      8260      8260      8261
      8260      8262      8260      8263      8263      8264      8263      8265
      8263      8266      8266      8267      8266      8268      8266      8269
      8269      8270      8269      8271      8269      8272      8272      8273
      8272      8274      8272      8275      8275      8276      8275      8277
      8275      8278      8278      8279      8278      8280      8278      8281
      8281      8282      8283      8284      8283      8285      8285      8286
      8285      8287      8285      8288      8288      8289      8288      8290
      8288      8291      8291      8292      8291      8293      8291      8294
      8294      8295      8294      8296      8294      8297      8297      8298
      8297      8299      8297      8300      8300      8301      8300      8302
      8300      8303      8303      8304      8303      8305      8303      8306
      8306      8307      8306      8308      8306      8309      8214      8216
      8281      8283      8258      8259      8385      8386      8385      8387
      8385      8388      8385      8382      8382      8383      8382      8384
      8382      8379      8379      8380      8379      8381      8379      8376
      8376      8377      8376      8378      8376      8373      8373      8374
      8373      8375      8373      8370      8370      8371      8370      8372
      8370      8367      8367      8368      8367      8369      8367      8364
      8364      8365      8364      8366      8364      8361      8361      8362
      8361      8363      8361      8358      8358      8359      8358      8360
      8358      8355      8355      8356      8355      8357      8355      8352
      8352      8353      8352      8354      8352      8349      8349      8350
      8349      8351      8349      8347      8347      8348      8345      8346
      8345      8341      8341      8342      8341      8343      8343      8344
      8341      8339      8339      8340      8339      8334      8334      8335
      8334      8336      8334      8332      8332      8329      8333      8329
      8330      8329      8331      8329      8333      8326      8326      8327
      8326      8328      8326      8323      8323      8324      8323      8325
      8323      8310      8310      8319      8310      8315      8310      8311
      8319      8320      8319      8321      8319      8322      8315      8316
      8315      8317      8315      8318      8311      8312      8311      8313
      8311      8314      8339      8337      8337      8338      8337      8389
      8389      8391      8391      8392      8391      8393      8391      8394
      8394      8395      8394      8396      8394      8397      8397      8398
      8397      8399      8397      8400      8400      8401      8400      8402
      8400      8403      8403      8404      8403      8405      8403      8406
      8406      8407      8406      8408      8406      8409      8409      8410
      8409      8411      8409      8412      8412      8413      8414      8415
      8414      8416      8416      8417      8416      8418      8416      8419
      8419      8420      8419      8421      8419      8422      8422      8423
      8422      8424      8422      8425      8425      8426      8425      8427
      8425      8428      8428      8429      8428      8430      8428      8431
      8431      8432      8431      8433      8431      8434      8434      8435
      8434      8436      8434      8437      8437      8438      8437      8439
      8437      8440      8345      8347      8412      8414      8389      8390
      8441      8445      8441      8449      8441      8453      8445      8446
      8445      8447      8445      8448      8449      8450      8449      8451
      8449      8452      8453      8454      8453      8455      8453      8456
      8441      8442      8442      8443      8442      8444      8442      8457
      8457      8458      8457      8459      8457      8463      8464      8465
      8463      8460      8460      8464      8460      8461      8460      8462
      8465      8466      8465      8467      8465      8468      8468      8469
      8468      8476      8468      8470      8476      8477      8476      8478
      8476      8479      8470      8471      8471      8473      8471      8472
      8473      8474      8473      8475      8473      8485      8485      8486
      8485      8487      8485      8488      8488      8489      8488      8490
      8488      8491      8491      8492      8491      8493      8493      8494
      8493      8495      8495      8496      8495      8497      8495      8498
      8498      8499      8498      8500      8500      8501      8500      8502
      8502      8503      8502      8504      8502      8505      8505      8506
      8505      8507      8507      8508      8507      8509      8509      8510
      8509      8511      8509      8512      8512      8513      8512      8514
      8514      8515      8514      8516      8516      8517      8516      8518
      8516      8519      8519      8520      8519      8521      8519      8522
      8522      8523      8522      8524      8522      8525      8525      8526
      8525      8527      8525      8528      8528      8529      8528      8530
      8528      8531      8479      8480      8480      8482      8480      8481
      8482      8483      8482      8484      8482      8532      8532      8533
      8532      8534      8532      8535      8535      8536      8535      8537
      8535      8538      8538      8539      8538      8540      8538      8541
      8541      8542      8541      8543      8541      8544      8544      8545
      8544      8546      8544      8547      8547      8548      8547      8549
      8547      8550      8550      8551      8550      8552      8550      8553
      8553      8554      8553      8555      8553      8556      8556      8557
      8556      8558      8556      8559      8559      8560      8559      8561
      8559      8562      8562      8563      8562      8564      8562      8565
      8565      8566      8565      8567      8565      8568      8568      8569
      8568      8570      8568      8571      8571      8572      8571      8573
      8571      8574      8574      8575      8574      8576      8574      8577
      8577      8578      8577      8579      8577      8580      8581      8582
      8581      8583      8581      8584      8581      8585      8589      8587
      8587      8585      8587      8588      8585      8586      8585      8590
      8598      8597      8590      8591      8590      8592      8590      8596
      8596      8593      8593      8597      8593      8594      8593      8595
      8598      8599      8598      8600      8598      8601      8601      8602
      8601      8609      8601      8603      8609      8610      8609      8611
      8609      8612      8603      8604      8604      8606      8604      8605
      8606      8607      8606      8608      8606      8618      8618      8619
      8618      8620      8618      8621      8621      8622      8621      8623
      8621      8624      8624      8625      8624      8626      8626      8627
      8626      8628      8628      8629      8628      8630      8628      8631
      8631      8632      8631      8633      8633      8634      8633      8635
      8635      8636      8635      8637      8635      8638      8638      8639
      8638      8640      8640      8641      8640      8642      8642      8643
      8642      8644      8642      8645      8645      8646      8645      8647
      8647      8648      8647      8649      8649      8650      8649      8651
      8649      8652      8652      8653      8652      8654      8652      8655
      8655      8656      8655      8657      8655      8658      8658      8659
      8658      8660      8658      8661      8661      8662      8661      8663
      8661      8664      8612      8613      8613      8615      8613      8614
      8615      8616      8615      8617      8615      8665      8665      8666
      8665      8667      8665      8668      8668      8669      8668      8670
      8668      8671      8671      8672      8671      8673      8671      8674
      8674      8675      8674      8676      8674      8677      8677      8678
      8677      8679      8677      8680      8680      8681      8680      8682
      8680      8683      8683      8684      8683      8685      8683      8686
      8686      8687      8686      8688      8686      8689      8689      8690
      8689      8691      8689      8692      8692      8693      8692      8694
      8692      8695      8695      8696      8695      8697      8695      8698
      8698      8699      8698      8700      8698      8701      8701      8702
      8701      8703      8701      8704      8704      8705      8704      8706
      8704      8707      8707      8708      8707      8709      8707      8710
      8710      8711      8710      8712      8710      8713      8789      8790
      8789      8791      8789      8792      8789      8786      8786      8787
      8786      8788      8786      8783      8783      8784      8783      8785
      8783      8780      8780      8781      8780      8782      8780      8777
      8777      8778      8777      8779      8777      8774      8774      8775
      8774      8776      8774      8771      8771      8772      8771      8773
      8771      8768      8768      8769      8768      8770      8768      8765
      8765      8766      8765      8767      8765      8762      8762      8763
      8762      8764      8762      8759      8759      8760      8759      8761
      8759      8756      8756      8757      8756      8758      8756      8753
      8753      8754      8753      8755      8753      8751      8751      8752
      8749      8750      8749      8745      8745      8746      8745      8747
      8747      8748      8745      8743      8743      8744      8743      8738
      8738      8739      8738      8740      8738      8736      8736      8733
      8737      8733      8734      8733      8735      8733      8737      8730
      8730      8731      8730      8732      8730      8727      8727      8728
      8727      8729      8727      8714      8714      8723      8714      8719
      8714      8715      8723      8724      8723      8725      8723      8726
      8719      8720      8719      8721      8719      8722      8715      8716
      8715      8717      8715      8718      8743      8741      8741      8742
      8741      8793      8793      8795      8795      8796      8795      8797
      8795      8798      8798      8799      8798      8800      8798      8801
      8801      8802      8801      8803      8801      8804      8804      8805
      8804      8806      8804      8807      8807      8808      8807      8809
      8807      8810      8810      8811      8810      8812      8810      8813
      8813      8814      8813      8815      8813      8816      8816      8817
      8818      8819      8818      8820      8820      8821      8820      8822
      8820      8823      8823      8824      8823      8825      8823      8826
      8826      8827      8826      8828      8826      8829      8829      8830
      8829      8831      8829      8832      8832      8833      8832      8834
      8832      8835      8835      8836      8835      8837      8835      8838
      8838      8839      8838      8840      8838      8841      8841      8842
      8841      8843      8841      8844      8749      8751      8816      8818
      8793      8794      8845      8846      8845      8847      8845      8848
      8845      8849      8849      8850      8849      8851      8849      8852
      8852      8853      8852      8854      8852      8858      8860      8859
      8858      8855      8855      8859      8855      8856      8855      8857
      8860      8861      8860      8862      8860      8863      8863      8864
      8863      8871      8863      8865      8871      8872      8871      8873
      8871      8874      8865      8866      8866      8868      8866      8867
      8868      8869      8868      8870      8868      8880      8880      8881
      8880      8882      8880      8883      8883      8884      8883      8885
      8883      8886      8886      8887      8886      8888      8888      8889
      8888      8890      8890      8891      8890      8892      8890      8893
      8893      8894      8893      8895      8895      8896      8895      8897
      8897      8898      8897      8899      8897      8900      8900      8901
      8900      8902      8902      8903      8902      8904      8904      8905
      8904      8906      8904      8907      8907      8908      8907      8909
      8909      8910      8909      8911      8911      8912      8911      8913
      8911      8914      8914      8915      8914      8916      8914      8917
      8917      8918      8917      8919      8917      8920      8920      8921
      8920      8922      8920      8923      8923      8924      8923      8925
      8923      8926      8874      8875      8875      8877      8875      8876
      8877      8878      8877      8879      8877      8927      8927      8928
      8927      8929      8927      8930      8930      8931      8930      8932
      8930      8933      8933      8934      8933      8935      8933      8936
      8936      8937      8936      8938      8936      8939      8939      8940
      8939      8941      8939      8942      8942      8943      8942      8944
      8942      8945      8945      8946      8945      8947      8945      8948
      8948      8949      8948      8950      8948      8951      8951      8952
      8951      8953      8951      8954      8954      8955      8954      8956
      8954      8957      8957      8958      8957      8959      8957      8960
      8960      8961      8960      8962      8960      8963      8963      8964
      8963      8965      8963      8966      8966      8967      8966      8968
      8966      8969      8969      8970      8969      8971      8969      8972
      8972      8973      8972      8974      8972      8975      8976      8978
      8976      8977      8978      8979      8976      9022      9022      9023
      9022      9024      9022      9019      9019      9020      9019      9021
      8976      8980      8980      8981      8980      8982      8980      8983
      8983      9014      9014      9019      9014      9015      9015      9016
      9015      9017      9015      9018      8983      8984      8984      8985
      8984      8986      8986      8987      8986      8988      8986      8989
      8989      8990      8989      9012      9012      9013      9012      9014
      8989      8991      8991      8992      8991      9001      9001      9006
      9006      9007      9006      9008      9006      9009      9009      9010
      9009      9011      9009      9012      9001      9002      9002      9003
      9002      9004      9002      9005      8991      8993      8993      8994
      8993      8995      8993      8996      8996      8997      8996      8998
      8996      8999      8999      9000      8999      9001      8999      9025
      9025      9026      9025      9027      9027      9028      9027      9029
      9027      9030      9025      9031      9031      9032      9031      9033
      9031      9034      9034      9035      9034      9036      9034      9037
      9037      9038      9037      9039      9037      9040      9040      9041
      9040      9042      9042      9043      9042      9044      9042      9045
      9040      9046      9046      9047      9046      9048      9046      9049
      9050      9051      9050      9052      9050      9053      9050      9054
      9054      9055      9054      9056      9054      9057      9057      9058
      9057      9059      9057      9063      9065      9064      9063      9060
      9060      9064      9060      9061      9060      9062      9065      9066
      9065      9067      9065      9068      9068      9069      9068      9076
      9068      9070      9076      9077      9076      9078      9076      9079
      9070      9071      9071      9073      9071      9072      9073      9074
      9073      9075      9073      9085      9085      9086      9085      9087
      9085      9088      9088      9089      9088      9090      9088      9091
      9091      9092      9091      9093      9093      9094      9093      9095
      9095      9096      9095      9097      9095      9098      9098      9099
      9098      9100      9100      9101      9100      9102      9102      9103
      9102      9104      9102      9105      9105      9106      9105      9107
      9107      9108      9107      9109      9109      9110      9109      9111
      9109      9112      9112      9113      9112      9114      9114      9115
      9114      9116      9116      9117      9116      9118      9116      9119
      9119      9120      9119      9121      9119      9122      9122      9123
      9122      9124      9122      9125      9125      9126      9125      9127
      9125      9128      9128      9129      9128      9130      9128      9131
      9079      9080      9080      9082      9080      9081      9082      9083
      9082      9084      9082      9132      9132      9133      9132      9134
      9132      9135      9135      9136      9135      9137      9135      9138
      9138      9139      9138      9140      9138      9141      9141      9142
      9141      9143      9141      9144      9144      9145      9144      9146
      9144      9147      9147      9148      9147      9149      9147      9150
      9150      9151      9150      9152      9150      9153      9153      9154
      9153      9155      9153      9156      9156      9157      9156      9158
      9156      9159      9159      9160      9159      9161      9159      9162
      9162      9163      9162      9164      9162      9165      9165      9166
      9165      9167      9165      9168      9168      9169      9168      9170
      9168      9171      9171      9172      9171      9173      9171      9174
      9174      9175      9174      9176      9174      9177      9177      9178
      9177      9179      9177      9180      9181      9185      9181      9189
      9181      9193      9185      9186      9185      9187      9185      9188
      9189      9190      9189      9191      9189      9192      9193      9194
      9193      9195      9193      9196      9181      9182      9182      9183
      9182      9184      9182      9197      9197      9198      9197      9199
      9197      9203      9204      9205      9203      9200      9200      9204
      9200      9201      9200      9202      9205      9206      9205      9207
      9205      9208      9208      9209      9208      9216      9208      9210
      9216      9217      9216      9218      9216      9219      9210      9211
      9211      9213      9211      9212      9213      9214      9213      9215
      9213      9225      9225      9226      9225      9227      9225      9228
      9228      9229      9228      9230      9228      9231      9231      9232
      9231      9233      9233      9234      9233      9235      9235      9236
      9235      9237      9235      9238      9238      9239      9238      9240
      9240      9241      9240      9242      9242      9243      9242      9244
      9242      9245      9245      9246      9245      9247      9247      9248
      9247      9249      9249      9250      9249      9251      9249      9252
      9252      9253      9252      9254      9254      9255      9254      9256
      9256      9257      9256      9258      9256      9259      9259      9260
      9259      9261      9259      9262      9262      9263      9262      9264
      9262      9265      9265      9266      9265      9267      9265      9268
      9268      9269      9268      9270      9268      9271      9219      9220
      9220      9222      9220      9221      9222      9223      9222      9224
      9222      9272      9272      9273      9272      9274      9272      9275
      9275      9276      9275      9277      9275      9278      9278      9279
      9278      9280      9278      9281      9281      9282      9281      9283
      9281      9284      9284      9285      9284      9286      9284      9287
      9287      9288      9287      9289      9287      9290      9290      9291
      9290      9292      9290      9293      9293      9294      9293      9295
      9293      9296      9296      9297      9296      9298      9296      9299
      9299      9300      9299      9301      9299      9302      9302      9303
      9302      9304      9302      9305      9305      9306      9305      9307
      9305      9308      9308      9309      9308      9310      9308      9311
      9311      9312      9311      9313      9311      9314      9314      9315
      9314      9316      9314      9317      9317      9318      9317      9319
      9317      9320      9321      9322      9321      9323      9321      9324
      9321      9325      9329      9327      9327      9325      9327      9328
      9325      9326      9325      9330      9338      9337      9330      9331
      9330      9332      9330      9336      9336      9333      9333      9337
      9333      9334      9333      9335      9338      9339      9338      9340
      9338      9341      9341      9342      9341      9349      9341      9343
      9349      9350      9349      9351      9349      9352      9343      9344
      9344      9346      9344      9345      9346      9347      9346      9348
      9346      9358      9358      9359      9358      9360      9358      9361
      9361      9362      9361      9363      9361      9364      9364      9365
      9364      9366      9366      9367      9366      9368      9368      9369
      9368      9370      9368      9371      9371      9372      9371      9373
      9373      9374      9373      9375      9375      9376      9375      9377
      9375      9378      9378      9379      9378      9380      9380      9381
      9380      9382      9382      9383      9382      9384      9382      9385
      9385      9386      9385      9387      9387      9388      9387      9389
      9389      9390      9389      9391      9389      9392      9392      9393
      9392      9394      9392      9395      9395      9396      9395      9397
      9395      9398      9398      9399      9398      9400      9398      9401
      9401      9402      9401      9403      9401      9404      9352      9353
      9353      9355      9353      9354      9355      9356      9355      9357
      9355      9405      9405      9406      9405      9407      9405      9408
      9408      9409      9408      9410      9408      9411      9411      9412
      9411      9413      9411      9414      9414      9415      9414      9416
      9414      9417      9417      9418      9417      9419      9417      9420
      9420      9421      9420      9422      9420      9423      9423      9424
      9423      9425      9423      9426      9426      9427      9426      9428
      9426      9429      9429      9430      9429      9431      9429      9432
      9432      9433      9432      9434      9432      9435      9435      9436
      9435      9437      9435      9438      9438      9439      9438      9440
      9438      9441      9441      9442      9441      9443      9441      9444
      9444      9445      9444      9446      9444      9447      9447      9448
      9447      9449      9447      9450      9450      9451      9450      9452
      9450      9453      9454      9456      9454      9455      9456      9457
      9454      9500      9500      9501      9500      9502      9500      9497
      9497      9498      9497      9499      9454      9458      9458      9459
      9458      9460      9458      9461      9461      9492      9492      9497
      9492      9493      9493      9494      9493      9495      9493      9496
      9461      9462      9462      9463      9462      9464      9464      9465
      9464      9466      9464      9467      9467      9468      9467      9490
      9490      9491      9490      9492      9467      9469      9469      9470
      9469      9479      9479      9484      9484      9485      9484      9486
      9484      9487      9487      9488      9487      9489      9487      9490
      9479      9480      9480      9481      9480      9482      9480      9483
      9469      9471      9471      9472      9471      9473      9471      9474
      9474      9475      9474      9476      9474      9477      9477      9478
      9477      9479      9477      9503      9503      9504      9503      9505
      9505      9506      9505      9507      9505      9508      9503      9509
      9509      9510      9509      9511      9509      9512      9512      9513
      9512      9514      9512      9515      9515      9516      9515      9517
      9515      9518      9518      9519      9518      9520      9520      9521
      9520      9522      9520      9523      9518      9524      9524      9525
      9524      9526      9524      9527      9603      9604      9603      9605
      9603      9606      9603      9600      9600      9601      9600      9602
      9600      9597      9597      9598      9597      9599      9597      9594
      9594      9595      9594      9596      9594      9591      9591      9592
      9591      9593      9591      9588      9588      9589      9588      9590
      9588      9585      9585      9586      9585      9587      9585      9582
      9582      9583      9582      9584      9582      9579      9579      9580
      9579      9581      9579      9576      9576      9577      9576      9578
      9576      9573      9573      9574      9573      9575      9573      9570
      9570      9571      9570      9572      9570      9567      9567      9568
      9567      9569      9567      9565      9565      9566      9563      9564
      9563      9559      9559      9560      9559      9561      9561      9562
      9559      9557      9557      9558      9557      9552      9552      9553
      9552      9554      9552      9550      9550      9547      9551      9547
      9548      9547      9549      9547      9551      9544      9544      9545
      9544      9546      9544      9541      9541      9542      9541      9543
      9541      9528      9528      9537      9528      9533      9528      9529
      9537      9538      9537      9539      9537      9540      9533      9534
      9533      9535      9533      9536      9529      9530      9529      9531
      9529      9532      9557      9555      9555      9556      9555      9607
      9607      9609      9609      9610      9609      9611      9609      9612
      9612      9613      9612      9614      9612      9615      9615      9616
      9615      9617      9615      9618      9618      9619      9618      9620
      9618      9621      9621      9622      9621      9623      9621      9624
      9624      9625      9624      9626      9624      9627      9627      9628
      9627      9629      9627      9630      9630      9631      9632      9633
      9632      9634      9634      9635      9634      9636      9634      9637
      9637      9638      9637      9639      9637      9640      9640      9641
      9640      9642      9640      9643      9643      9644      9643      9645
      9643      9646      9646      9647      9646      9648      9646      9649
      9649      9650      9649      9651      9649      9652      9652      9653
      9652      9654      9652      9655      9655      9656      9655      9657
      9655      9658      9563      9565      9630      9632      9607      9608
      9659      9660      9659      9661      9659      9662      9659      9663
      9667      9665      9665      9663      9665      9666      9663      9664
      9663      9668      9676      9675      9668      9669      9668      9670
      9668      9674      9674      9671      9671      9675      9671      9672
      9671      9673      9676      9677      9676      9678      9676      9679
      9679      9680      9679      9687      9679      9681      9687      9688
      9687      9689      9687      9690      9681      9682      9682      9684
      9682      9683      9684      9685      9684      9686      9684      9696
      9696      9697      9696      9698      9696      9699      9699      9700
      9699      9701      9699      9702      9702      9703      9702      9704
      9704      9705      9704      9706      9706      9707      9706      9708
      9706      9709      9709      9710      9709      9711      9711      9712
      9711      9713      9713      9714      9713      9715      9713      9716
      9716      9717      9716      9718      9718      9719      9718      9720
      9720      9721      9720      9722      9720      9723      9723      9724
      9723      9725      9725      9726      9725      9727      9727      9728
      9727      9729      9727      9730      9730      9731      9730      9732
      9730      9733      9733      9734      9733      9735      9733      9736
      9736      9737      9736      9738      9736      9739      9739      9740
      9739      9741      9739      9742      9690      9691      9691      9693
      9691      9692      9693      9694      9693      9695      9693      9743
      9743      9744      9743      9745      9743      9746      9746      9747
      9746      9748      9746      9749      9749      9750      9749      9751
      9749      9752      9752      9753      9752      9754      9752      9755
      9755      9756      9755      9757      9755      9758      9758      9759
      9758      9760      9758      9761      9761      9762      9761      9763
      9761      9764      9764      9765      9764      9766      9764      9767
      9767      9768      9767      9769      9767      9770      9770      9771
      9770      9772      9770      9773      9773      9774      9773      9775
      9773      9776      9776      9777      9776      9778      9776      9779
      9779      9780      9779      9781      9779      9782      9782      9783
      9782      9784      9782      9785      9785      9786      9785      9787
      9785      9788      9788      9789      9788      9790      9788      9791
      9792      9796      9792      9800      9792      9804      9796      9797
      9796      9798      9796      9799      9800      9801      9800      9802
      9800      9803      9804      9805      9804      9806      9804      9807
      9792      9793      9793      9794      9793      9795      9793      9808
      9808      9809      9808      9810      9808      9814      9815      9816
      9814      9811      9811      9815      9811      9812      9811      9813
      9816      9817      9816      9818      9816      9819      9819      9820
      9819      9827      9819      9821      9827      9828      9827      9829
      9827      9830      9821      9822      9822      9824      9822      9823
      9824      9825      9824      9826      9824      9836      9836      9837
      9836      9838      9836      9839      9839      9840      9839      9841
      9839      9842      9842      9843      9842      9844      9844      9845
      9844      9846      9846      9847      9846      9848      9846      9849
      9849      9850      9849      9851      9851      9852      9851      9853
      9853      9854      9853      9855      9853      9856      9856      9857
      9856      9858      9858      9859      9858      9860      9860      9861
      9860      9862      9860      9863      9863      9864      9863      9865
      9865      9866      9865      9867      9867      9868      9867      9869
      9867      9870      9870      9871      9870      9872      9870      9873
      9873      9874      9873      9875      9873      9876      9876      9877
      9876      9878      9876      9879      9879      9880      9879      9881
      9879      9882      9830      9831      9831      9833      9831      9832
      9833      9834      9833      9835      9833      9883      9883      9884
      9883      9885      9883      9886      9886      9887      9886      9888
      9886      9889      9889      9890      9889      9891      9889      9892
      9892      9893      9892      9894      9892      9895      9895      9896
      9895      9897      9895      9898      9898      9899      9898      9900
      9898      9901      9901      9902      9901      9903      9901      9904
      9904      9905      9904      9906      9904      9907      9907      9908
      9907      9909      9907      9910      9910      9911      9910      9912
      9910      9913      9913      9914      9913      9915      9913      9916
      9916      9917      9916      9918      9916      9919      9919      9920
      9919      9921      9919      9922      9922      9923      9922      9924
      9922      9925      9925      9926      9925      9927      9925      9928
      9928      9929      9928      9930      9928      9931      9932      9934
      9932      9933      9934      9935      9932      9978      9978      9979
      9978      9980      9978      9975      9975      9976      9975      9977
      9932      9936      9936      9937      9936      9938      9936      9939
      9939      9970      9970      9975      9970      9971      9971      9972
      9971      9973      9971      9974      9939      9940      9940      9941
      9940      9942      9942      9943      9942      9944      9942      9945
      9945      9946      9945      9968      9968      9969      9968      9970
      9945      9947      9947      9948      9947      9957      9957      9962
      9962      9963      9962      9964      9962      9965      9965      9966
      9965      9967      9965      9968      9957      9958      9958      9959
      9958      9960      9958      9961      9947      9949      9949      9950
      9949      9951      9949      9952      9952      9953      9952      9954
      9952      9955      9955      9956      9955      9957      9955      9981
      9981      9982      9981      9983      9983      9984      9983      9985
      9983      9986      9981      9987      9987      9988      9987      9989
      9987      9990      9990      9991      9990      9992      9990      9993
      9993      9994      9993      9995      9993      9996      9996      9997
      9996      9998      9998      9999      9998     10000      9998     10001
      9996     10002     10002     10003     10002     10004     10002     10005
     10006     10007     10006     10011     10006     10015     10007     10008
     10007     10009     10007     10010     10011     10012     10011     10013
     10011     10014     10015     10016     10015     10017     10015     10018
     10006     10019     10019     10020     10019     10021     10019     10022
     10022     10023     10022     10024     10022     10028     10029     10030
     10028     10025     10025     10029     10025     10026     10025     10027
     10030     10031     10030     10032     10030     10033     10033     10034
     10033     10041     10033     10035     10041     10042     10041     10043
     10041     10044     10035     10036     10036     10038     10036     10037
     10038     10039     10038     10040     10038     10050     10050     10051
     10050     10052     10050     10053     10053     10054     10053     10055
     10053     10056     10056     10057     10056     10058     10056     10059
     10059     10060     10059     10061     10059     10062     10062     10063
     10062     10064     10062     10065     10065     10066     10065     10067
     10065     10068     10068     10069     10068     10070     10070     10071
     10070     10072     10072     10073     10072     10074     10072     10075
     10075     10076     10075     10077     10077     10078     10077     10079
     10079     10080     10079     10081     10079     10082     10082     10083
     10082     10084     10082     10085     10085     10086     10085     10087
     10085     10088     10088     10089     10088     10090     10088     10091
     10091     10092     10091     10093     10091     10094     10044     10045
     10045     10047     10045     10046     10047     10048     10047     10049
     10047     10095     10095     10096     10095     10097     10095     10098
     10098     10099     10098     10100     10098     10101     10101     10102
     10101     10103     10101     10104     10104     10105     10104     10106
     10104     10107     10107     10108     10107     10109     10107     10110
     10110     10111     10110     10112     10110     10113     10113     10114
     10113     10115     10113     10116     10116     10117     10116     10118
     10116     10119     10119     10120     10119     10121     10119     10122
     10122     10123     10122     10124     10122     10125     10125     10126
     10125     10127     10125     10128     10128     10129     10128     10130
     10128     10131     10131     10132     10131     10133     10131     10134
     10134     10135     10134     10136     10134     10137     10137     10138
     10137     10139     10137     10140     10140     10141     10140     10142
     10140     10143     10144     10145     10144     10149     10144     10153
     10145     10146     10145     10147     10145     10148     10149     10150
     10149     10151     10149     10152     10153     10154     10153     10155
     10153     10156     10144     10157     10157     10158     10157     10159
     10157     10160     10160     10161     10160     10162     10160     10166
     10167     10168     10166     10163     10163     10167     10163     10164
     10163     10165     10168     10169     10168     10170     10168     10171
     10171     10172     10171     10179     10171     10173     10179     10180
     10179     10181     10179     10182     10173     10174     10174     10176
     10174     10175     10176     10177     10176     10178     10176     10188
     10188     10189     10188     10190     10188     10191     10191     10192
     10191     10193     10191     10194     10194     10195     10194     10196
     10194     10197     10197     10198     10197     10199     10197     10200
     10200     10201     10200     10202     10200     10203     10203     10204
     10203     10205     10203     10206     10206     10207     10206     10208
     10208     10209     10208     10210     10210     10211     10210     10212
     10210     10213     10213     10214     10213     10215     10215     10216
     10215     10217     10217     10218     10217     10219     10217     10220
     10220     10221     10220     10222     10220     10223     10223     10224
     10223     10225     10223     10226     10226     10227     10226     10228
     10226     10229     10229     10230     10229     10231     10229     10232
     10182     10183     10183     10185     10183     10184     10185     10186
     10185     10187     10185     10233     10233     10234     10233     10235
     10233     10236     10236     10237     10236     10238     10236     10239
     10239     10240     10239     10241     10239     10242     10242     10243
     10242     10244     10242     10245     10245     10246     10245     10247
     10245     10248     10248     10249     10248     10250     10248     10251
     10251     10252     10251     10253     10251     10254     10254     10255
     10254     10256     10254     10257     10257     10258     10257     10259
     10257     10260     10260     10261     10260     10262     10260     10263
     10263     10264     10263     10265     10263     10266     10266     10267
     10266     10268     10266     10269     10269     10270     10269     10271
     10269     10272     10272     10273     10272     10274     10272     10275
     10275     10276     10275     10277     10275     10278     10278     10279
     10278     10280     10278     10281     10282     10286     10282     10290
     10282     10294     10286     10287     10286     10288     10286     10289
     10290     10291     10290     10292     10290     10293     10294     10295
     10294     10296     10294     10297     10282     10283     10283     10284
     10283     10285     10283     10298     10298     10299     10298     10300
     10298     10304     10305     10306     10304     10301     10301     10305
     10301     10302     10301     10303     10306     10307     10306     10308
     10306     10309     10309     10310     10309     10317     10309     10311
     10317     10318     10317     10319     10317     10320     10311     10312
     10312     10314     10312     10313     10314     10315     10314     10316
     10314     10326     10326     10327     10326     10328     10326     10329
     10329     10330     10329     10331     10329     10332     10332     10333
     10332     10334     10332     10335     10335     10336     10335     10337
     10335     10338     10338     10339     10338     10340     10338     10341
     10341     10342     10341     10343     10341     10344     10344     10345
     10344     10346     10346     10347     10346     10348     10348     10349
     10348     10350     10348     10351     10351     10352     10351     10353
     10351     10354     10354     10355     10354     10356     10354     10357
     10357     10358     10357     10359     10357     10360     10360     10361
     10360     10362     10360     10363     10363     10364     10363     10365
     10363     10366     10366     10367     10366     10368     10366     10369
     10369     10370     10369     10371     10369     10372     10320     10321
     10321     10323     10321     10322     10323     10324     10323     10325
     10323     10373     10373     10374     10373     10375     10373     10376
     10376     10377     10376     10378     10376     10379     10379     10380
     10379     10381     10379     10382     10382     10383     10382     10384
     10382     10385     10385     10386     10385     10387     10385     10388
     10388     10389     10388     10390     10388     10391     10391     10392
     10391     10393     10391     10394     10394     10395     10394     10396
     10394     10397     10397     10398     10397     10399     10397     10400
     10400     10401     10400     10402     10400     10403     10403     10404
     10403     10405     10403     10406     10406     10407     10406     10408
     10406     10409     10409     10410     10409     10411     10409     10412
     10412     10413     10412     10414     10412     10415     10416     10418
     10416     10417     10418     10419     10416     10462     10462     10463
     10462     10464     10462     10459     10459     10460     10459     10461
     10416     10420     10420     10421     10420     10422     10420     10423
     10423     10454     10454     10459     10454     10455     10455     10456
     10455     10457     10455     10458     10423     10424     10424     10425
     10424     10426     10426     10427     10426     10428     10426     10429
     10429     10430     10429     10452     10452     10453     10452     10454
     10429     10431     10431     10432     10431     10441     10441     10446
     10446     10447     10446     10448     10446     10449     10449     10450
     10449     10451     10449     10452     10441     10442     10442     10443
     10442     10444     10442     10445     10431     10433     10433     10434
     10433     10435     10433     10436     10436     10437     10436     10438
     10436     10439     10439     10440     10439     10441     10439     10465
     10465     10466     10465     10467     10467     10468     10467     10469
     10467     10470     10465     10471     10471     10472     10471     10473
     10471     10474     10474     10475     10474     10476     10474     10477
     10477     10478     10477     10479     10477     10480     10480     10481
     10480     10482     10482     10483     10482     10484     10482     10485
     10480     10486     10486     10487     10486     10488     10486     10489
     10490     10491     10490     10492     10490     10493     10490     10494
     10494     10495     10494     10496     10494     10497     10497     10498
     10497     10499     10497     10503     10505     10504     10503     10500
     10500     10504     10500     10501     10500     10502     10505     10506
     10505     10507     10505     10508     10508     10509     10508     10516
     10508     10510     10516     10517     10516     10518     10516     10519
     10510     10511     10511     10513     10511     10512     10513     10514
     10513     10515     10513     10525     10525     10526     10525     10527
     10525     10528     10528     10529     10528     10530     10528     10531
     10531     10532     10531     10533     10531     10534     10534     10535
     10534     10536     10534     10537     10537     10538     10537     10539
     10537     10540     10540     10541     10540     10542     10540     10543
     10543     10544     10543     10545     10545     10546     10545     10547
     10547     10548     10547     10549     10547     10550     10550     10551
     10550     10552     10550     10553     10553     10554     10553     10555
     10553     10556     10556     10557     10556     10558     10556     10559
     10559     10560     10559     10561     10559     10562     10562     10563
     10562     10564     10562     10565     10565     10566     10565     10567
     10565     10568     10568     10569     10568     10570     10568     10571
     10519     10520     10520     10522     10520     10521     10522     10523
     10522     10524     10522     10572     10572     10573     10572     10574
     10572     10575     10575     10576     10575     10577     10575     10578
     10578     10579     10578     10580     10578     10581     10581     10582
     10581     10583     10581     10584     10584     10585     10584     10586
     10584     10587     10587     10588     10587     10589     10587     10590
     10590     10591     10590     10592     10590     10593     10593     10594
     10593     10595     10593     10596     10596     10597     10596     10598
     10596     10599     10599     10600     10599     10601     10599     10602
     10602     10603     10602     10604     10602     10605     10605     10606
     10605     10607     10605     10608     10608     10609     10608     10610
     10608     10611     10611     10612     10611     10613     10611     10614
     10614     10615     10614     10616     10614     10617     10617     10618
     10617     10619     10617     10620     10621     10622     10621     10623
     10621     10624     10621     10625     10625     10626     10625     10627
     10625     10628     10628     10629     10628     10630     10628     10634
     10636     10635     10634     10631     10631     10635     10631     10632
     10631     10633     10636     10637     10636     10638     10636     10639
     10639     10640     10639     10647     10639     10641     10647     10648
     10647     10649     10647     10650     10641     10642     10642     10644
     10642     10643     10644     10645     10644     10646     10644     10656
     10656     10657     10656     10658     10656     10659     10659     10660
     10659     10661     10659     10662     10662     10663     10662     10664
     10664     10665     10664     10666     10666     10667     10666     10668
     10666     10669     10669     10670     10669     10671     10671     10672
     10671     10673     10673     10674     10673     10675     10673     10676
     10676     10677     10676     10678     10678     10679     10678     10680
     10680     10681     10680     10682     10680     10683     10683     10684
     10683     10685     10685     10686     10685     10687     10687     10688
     10687     10689     10687     10690     10690     10691     10690     10692
     10690     10693     10693     10694     10693     10695     10693     10696
     10696     10697     10696     10698     10696     10699     10699     10700
     10699     10701     10699     10702     10650     10651     10651     10653
     10651     10652     10653     10654     10653     10655     10653     10703
     10703     10704     10703     10705     10703     10706     10706     10707
     10706     10708     10706     10709     10709     10710     10709     10711
     10709     10712     10712     10713     10712     10714     10712     10715
     10715     10716     10715     10717     10715     10718     10718     10719
     10718     10720     10718     10721     10721     10722     10721     10723
     10721     10724     10724     10725     10724     10726     10724     10727
     10727     10728     10727     10729     10727     10730     10730     10731
     10730     10732     10730     10733     10733     10734     10733     10735
     10733     10736     10736     10737     10736     10738     10736     10739
     10739     10740     10739     10741     10739     10742     10742     10743
     10742     10744     10742     10745     10745     10746     10745     10747
     10745     10748     10748     10749     10748     10750     10748     10751
     10752     10753     10752     10757     10752     10761     10753     10754
     10753     10755     10753     10756     10757     10758     10757     10759
     10757     10760     10761     10762     10761     10763     10761     10764
     10752     10765     10765     10766     10765     10767     10765     10768
     10768     10769     10768     10770     10768     10774     10775     10776
     10774     10771     10771     10775     10771     10772     10771     10773
     10776     10777     10776     10778     10776     10779     10779     10780
     10779     10787     10779     10781     10787     10788     10787     10789
     10787     10790     10781     10782     10782     10784     10782     10783
     10784     10785     10784     10786     10784     10796     10796     10797
     10796     10798     10796     10799     10799     10800     10799     10801
     10799     10802     10802     10803     10802     10804     10802     10805
     10805     10806     10805     10807     10805     10808     10808     10809
     10808     10810     10808     10811     10811     10812     10811     10813
     10811     10814     10814     10815     10814     10816     10816     10817
     10816     10818     10818     10819     10818     10820     10818     10821
     10821     10822     10821     10823     10823     10824     10823     10825
     10825     10826     10825     10827     10825     10828     10828     10829
     10828     10830     10828     10831     10831     10832     10831     10833
     10831     10834     10834     10835     10834     10836     10834     10837
     10837     10838     10837     10839     10837     10840     10790     10791
     10791     10793     10791     10792     10793     10794     10793     10795
     10793     10841     10841     10842     10841     10843     10841     10844
     10844     10845     10844     10846     10844     10847     10847     10848
     10847     10849     10847     10850     10850     10851     10850     10852
     10850     10853     10853     10854     10853     10855     10853     10856
     10856     10857     10856     10858     10856     10859     10859     10860
     10859     10861     10859     10862     10862     10863     10862     10864
     10862     10865     10865     10866     10865     10867     10865     10868
     10868     10869     10868     10870     10868     10871     10871     10872
     10871     10873     10871     10874     10874     10875     10874     10876
     10874     10877     10877     10878     10877     10879     10877     10880
     10880     10881     10880     10882     10880     10883     10883     10884
     10883     10885     10883     10886     10886     10887     10886     10888
     10886     10889     10890     10894     10890     10898     10890     10902
     10894     10895     10894     10896     10894     10897     10898     10899
     10898     10900     10898     10901     10902     10903     10902     10904
     10902     10905     10890     10891     10891     10892     10891     10893
     10891     10906     10906     10907     10906     10908     10906     10912
     10913     10914     10912     10909     10909     10913     10909     10910
     10909     10911     10914     10915     10914     10916     10914     10917
     10917     10918     10917     10925     10917     10919     10925     10926
     10925     10927     10925     10928     10919     10920     10920     10922
     10920     10921     10922     10923     10922     10924     10922     10934
     10934     10935     10934     10936     10934     10937     10937     10938
     10937     10939     10937     10940     10940     10941     10940     10942
     10942     10943     10942     10944     10944     10945     10944     10946
     10944     10947     10947     10948     10947     10949     10949     10950
     10949     10951     10951     10952     10951     10953     10951     10954
     10954     10955     10954     10956     10956     10957     10956     10958
     10958     10959     10958     10960     10958     10961     10961     10962
     10961     10963     10963     10964     10963     10965     10965     10966
     10965     10967     10965     10968     10968     10969     10968     10970
     10968     10971     10971     10972     10971     10973     10971     10974
     10974     10975     10974     10976     10974     10977     10977     10978
     10977     10979     10977     10980     10928     10929     10929     10931
     10929     10930     10931     10932     10931     10933     10931     10981
     10981     10982     10981     10983     10981     10984     10984     10985
     10984     10986     10984     10987     10987     10988     10987     10989
     10987     10990     10990     10991     10990     10992     10990     10993
     10993     10994     10993     10995     10993     10996     10996     10997
     10996     10998     10996     10999     10999     11000     10999     11001
     10999     11002     11002     11003     11002     11004     11002     11005
     11005     11006     11005     11007     11005     11008     11008     11009
     11008     11010     11008     11011     11011     11012     11011     11013
     11011     11014     11014     11015     11014     11016     11014     11017
     11017     11018     11017     11019     11017     11020     11020     11021
     11020     11022     11020     11023     11023     11024     11023     11025
     11023     11026     11026     11027     11026     11028     11026     11029
     11105     11106     11105     11107     11105     11108     11105     11102
     11102     11103     11102     11104     11102     11099     11099     11100
     11099     11101     11099     11096     11096     11097     11096     11098
     11096     11093     11093     11094     11093     11095     11093     11090
     11090     11091     11090     11092     11090     11087     11087     11088
     11087     11089     11087     11084     11084     11085     11084     11086
     11084     11081     11081     11082     11081     11083     11081     11078
     11078     11079     11078     11080     11078     11075     11075     11076
     11075     11077     11075     11072     11072     11073     11072     11074
     11072     11069     11069     11070     11069     11071     11069     11067
     11067     11068     11065     11066     11065     11061     11061     11062
     11061     11063     11063     11064     11061     11059     11059     11060
     11059     11054     11054     11055     11054     11056     11054     11052
     11052     11049     11053     11049     11050     11049     11051     11049
     11053     11046     11046     11047     11046     11048     11046     11043
     11043     11044     11043     11045     11043     11030     11030     11039
     11030     11035     11030     11031     11039     11040     11039     11041
     11039     11042     11035     11036     11035     11037     11035     11038
     11031     11032     11031     11033     11031     11034     11059     11057
     11057     11058     11057     11109     11109     11111     11111     11112
     11111     11113     11111     11114     11114     11115     11114     11116
     11114     11117     11117     11118     11117     11119     11117     11120
     11120     11121     11120     11122     11120     11123     11123     11124
     11123     11125     11123     11126     11126     11127     11126     11128
     11126     11129     11129     11130     11129     11131     11129     11132
     11132     11133     11134     11135     11134     11136     11136     11137
     11136     11138     11136     11139     11139     11140     11139     11141
     11139     11142     11142     11143     11142     11144     11142     11145
     11145     11146     11145     11147     11145     11148     11148     11149
     11148     11150     11148     11151     11151     11152     11151     11153
     11151     11154     11154     11155     11154     11156     11154     11157
     11157     11158     11157     11159     11157     11160     11065     11067
     11132     11134     11109     11110     11161     11162     11161     11163
     11161     11164     11161     11165     11165     11166     11165     11167
     11165     11168     11168     11169     11168     11170     11168     11174
     11176     11175     11174     11171     11171     11175     11171     11172
     11171     11173     11176     11177     11176     11178     11176     11179
     11179     11180     11179     11187     11179     11181     11187     11188
     11187     11189     11187     11190     11181     11182     11182     11184
     11182     11183     11184     11185     11184     11186     11184     11196
     11196     11197     11196     11198     11196     11199     11199     11200
     11199     11201     11199     11202     11202     11203     11202     11204
     11204     11205     11204     11206     11206     11207     11206     11208
     11206     11209     11209     11210     11209     11211     11211     11212
     11211     11213     11213     11214     11213     11215     11213     11216
     11216     11217     11216     11218     11218     11219     11218     11220
     11220     11221     11220     11222     11220     11223     11223     11224
     11223     11225     11225     11226     11225     11227     11227     11228
     11227     11229     11227     11230     11230     11231     11230     11232
     11230     11233     11233     11234     11233     11235     11233     11236
     11236     11237     11236     11238     11236     11239     11239     11240
     11239     11241     11239     11242     11190     11191     11191     11193
     11191     11192     11193     11194     11193     11195     11193     11243
     11243     11244     11243     11245     11243     11246     11246     11247
     11246     11248     11246     11249     11249     11250     11249     11251
     11249     11252     11252     11253     11252     11254     11252     11255
     11255     11256     11255     11257     11255     11258     11258     11259
     11258     11260     11258     11261     11261     11262     11261     11263
     11261     11264     11264     11265     11264     11266     11264     11267
     11267     11268     11267     11269     11267     11270     11270     11271
     11270     11272     11270     11273     11273     11274     11273     11275
     11273     11276     11276     11277     11276     11278     11276     11279
     11279     11280     11279     11281     11279     11282     11282     11283
     11282     11284     11282     11285     11285     11286     11285     11287
     11285     11288     11288     11289     11288     11290     11288     11291
     11292     11293     11292     11294     11292     11295     11292     11296
     11296     11297     11296     11298     11296     11299     11299     11300
     11299     11301     11299     11305     11307     11306     11305     11302
     11302     11306     11302     11303     11302     11304     11307     11308
     11307     11309     11307     11310     11310     11311     11310     11318
     11310     11312     11318     11319     11318     11320     11318     11321
     11312     11313     11313     11315     11313     11314     11315     11316
     11315     11317     11315     11327     11327     11328     11327     11329
     11327     11330     11330     11331     11330     11332     11330     11333
     11333     11334     11333     11335     11335     11336     11335     11337
     11337     11338     11337     11339     11337     11340     11340     11341
     11340     11342     11342     11343     11342     11344     11344     11345
     11344     11346     11344     11347     11347     11348     11347     11349
     11349     11350     11349     11351     11351     11352     11351     11353
     11351     11354     11354     11355     11354     11356     11356     11357
     11356     11358     11358     11359     11358     11360     11358     11361
     11361     11362     11361     11363     11361     11364     11364     11365
     11364     11366     11364     11367     11367     11368     11367     11369
     11367     11370     11370     11371     11370     11372     11370     11373
     11321     11322     11322     11324     11322     11323     11324     11325
     11324     11326     11324     11374     11374     11375     11374     11376
     11374     11377     11377     11378     11377     11379     11377     11380
     11380     11381     11380     11382     11380     11383     11383     11384
     11383     11385     11383     11386     11386     11387     11386     11388
     11386     11389     11389     11390     11389     11391     11389     11392
     11392     11393     11392     11394     11392     11395     11395     11396
     11395     11397     11395     11398     11398     11399     11398     11400
     11398     11401     11401     11402     11401     11403     11401     11404
     11404     11405     11404     11406     11404     11407     11407     11408
     11407     11409     11407     11410     11410     11411     11410     11412
     11410     11413     11413     11414     11413     11415     11413     11416
     11416     11417     11416     11418     11416     11419     11419     11420
     11419     11421     11419     11422     11423     11424     11423     11425
     11423     11426     11423     11427     11427     11428     11427     11429
     11427     11430     11430     11431     11430     11432     11430     11436
     11438     11437     11436     11433     11433     11437     11433     11434
     11433     11435     11438     11439     11438     11440     11438     11441
     11441     11442     11441     11449     11441     11443     11449     11450
     11449     11451     11449     11452     11443     11444     11444     11446
     11444     11445     11446     11447     11446     11448     11446     11458
     11458     11459     11458     11460     11458     11461     11461     11462
     11461     11463     11461     11464     11464     11465     11464     11466
     11466     11467     11466     11468     11468     11469     11468     11470
     11468     11471     11471     11472     11471     11473     11473     11474
     11473     11475     11475     11476     11475     11477     11475     11478
     11478     11479     11478     11480     11480     11481     11480     11482
     11482     11483     11482     11484     11482     11485     11485     11486
     11485     11487     11487     11488     11487     11489     11489     11490
     11489     11491     11489     11492     11492     11493     11492     11494
     11492     11495     11495     11496     11495     11497     11495     11498
     11498     11499     11498     11500     11498     11501     11501     11502
     11501     11503     11501     11504     11452     11453     11453     11455
     11453     11454     11455     11456     11455     11457     11455     11505
     11505     11506     11505     11507     11505     11508     11508     11509
     11508     11510     11508     11511     11511     11512     11511     11513
     11511     11514     11514     11515     11514     11516     11514     11517
     11517     11518     11517     11519     11517     11520     11520     11521
     11520     11522     11520     11523     11523     11524     11523     11525
     11523     11526     11526     11527     11526     11528     11526     11529
     11529     11530     11529     11531     11529     11532     11532     11533
     11532     11534     11532     11535     11535     11536     11535     11537
     11535     11538     11538     11539     11538     11540     11538     11541
     11541     11542     11541     11543     11541     11544     11544     11545
     11544     11546     11544     11547     11547     11548     11547     11549
     11547     11550     11550     11551     11550     11552     11550     11553
     11554     11555     11554     11556     11554     11557     11554     11558
     11562     11560     11560     11558     11560     11561     11558     11559
     11558     11563     11571     11570     11563     11564     11563     11565
     11563     11569     11569     11566     11566     11570     11566     11567
     11566     11568     11571     11572     11571     11573     11571     11574
     11574     11575     11574     11582     11574     11576     11582     11583
     11582     11584     11582     11585     11576     11577     11577     11579
     11577     11578     11579     11580     11579     11581     11579     11591
     11591     11592     11591     11593     11591     11594     11594     11595
     11594     11596     11594     11597     11597     11598     11597     11599
     11599     11600     11599     11601     11601     11602     11601     11603
     11601     11604     11604     11605     11604     11606     11606     11607
     11606     11608     11608     11609     11608     11610     11608     11611
     11611     11612     11611     11613     11613     11614     11613     11615
     11615     11616     11615     11617     11615     11618     11618     11619
     11618     11620     11620     11621     11620     11622     11622     11623
     11622     11624     11622     11625     11625     11626     11625     11627
     11625     11628     11628     11629     11628     11630     11628     11631
     11631     11632     11631     11633     11631     11634     11634     11635
     11634     11636     11634     11637     11585     11586     11586     11588
     11586     11587     11588     11589     11588     11590     11588     11638
     11638     11639     11638     11640     11638     11641     11641     11642
     11641     11643     11641     11644     11644     11645     11644     11646
     11644     11647     11647     11648     11647     11649     11647     11650
     11650     11651     11650     11652     11650     11653     11653     11654
     11653     11655     11653     11656     11656     11657     11656     11658
     11656     11659     11659     11660     11659     11661     11659     11662
     11662     11663     11662     11664     11662     11665     11665     11666
     11665     11667     11665     11668     11668     11669     11668     11670
     11668     11671     11671     11672     11671     11673     11671     11674
     11674     11675     11674     11676     11674     11677     11677     11678
     11677     11679     11677     11680     11680     11681     11680     11682
     11680     11683     11683     11684     11683     11685     11683     11686
     11762     11763     11762     11764     11762     11765     11762     11759
     11759     11760     11759     11761     11759     11756     11756     11757
     11756     11758     11756     11753     11753     11754     11753     11755
     11753     11750     11750     11751     11750     11752     11750     11747
     11747     11748     11747     11749     11747     11744     11744     11745
     11744     11746     11744     11741     11741     11742     11741     11743
     11741     11738     11738     11739     11738     11740     11738     11735
     11735     11736     11735     11737     11735     11732     11732     11733
     11732     11734     11732     11729     11729     11730     11729     11731
     11729     11726     11726     11727     11726     11728     11726     11724
     11724     11725     11722     11723     11722     11718     11718     11719
     11718     11720     11720     11721     11718     11716     11716     11717
     11716     11711     11711     11712     11711     11713     11711     11709
     11709     11706     11710     11706     11707     11706     11708     11706
     11710     11703     11703     11704     11703     11705     11703     11700
     11700     11701     11700     11702     11700     11687     11687     11696
     11687     11692     11687     11688     11696     11697     11696     11698
     11696     11699     11692     11693     11692     11694     11692     11695
     11688     11689     11688     11690     11688     11691     11716     11714
     11714     11715     11714     11766     11766     11768     11768     11769
     11768     11770     11768     11771     11771     11772     11771     11773
     11771     11774     11774     11775     11774     11776     11774     11777
     11777     11778     11777     11779     11777     11780     11780     11781
     11780     11782     11780     11783     11783     11784     11783     11785
     11783     11786     11786     11787     11786     11788     11786     11789
     11789     11790     11791     11792     11791     11793     11793     11794
     11793     11795     11793     11796     11796     11797     11796     11798
     11796     11799     11799     11800     11799     11801     11799     11802
     11802     11803     11802     11804     11802     11805     11805     11806
     11805     11807     11805     11808     11808     11809     11808     11810
     11808     11811     11811     11812     11811     11813     11811     11814
     11814     11815     11814     11816     11814     11817     11722     11724
     11789     11791     11766     11767     11818     11822     11818     11826
     11818     11830     11822     11823     11822     11824     11822     11825
     11826     11827     11826     11828     11826     11829     11830     11831
     11830     11832     11830     11833     11818     11819     11819     11820
     11819     11821     11819     11834     11834     11835     11834     11836
     11834     11840     11841     11842     11840     11837     11837     11841
     11837     11838     11837     11839     11842     11843     11842     11844
     11842     11845     11845     11846     11845     11853     11845     11847
     11853     11854     11853     11855     11853     11856     11847     11848
     11848     11850     11848     11849     11850     11851     11850     11852
     11850     11862     11862     11863     11862     11864     11862     11865
     11865     11866     11865     11867     11865     11868     11868     11869
     11868     11870     11868     11871     11871     11872     11871     11873
     11871     11874     11874     11875     11874     11876     11874     11877
     11877     11878     11877     11879     11877     11880     11880     11881
     11880     11882     11882     11883     11882     11884     11884     11885
     11884     11886     11884     11887     11887     11888     11887     11889
     11887     11890     11890     11891     11890     11892     11890     11893
     11893     11894     11893     11895     11893     11896     11896     11897
     11896     11898     11896     11899     11899     11900     11899     11901
     11899     11902     11902     11903     11902     11904     11902     11905
     11905     11906     11905     11907     11905     11908     11856     11857
     11857     11859     11857     11858     11859     11860     11859     11861
     11859     11909     11909     11910     11909     11911     11909     11912
     11912     11913     11912     11914     11912     11915     11915     11916
     11915     11917     11915     11918     11918     11919     11918     11920
     11918     11921     11921     11922     11921     11923     11921     11924
     11924     11925     11924     11926     11924     11927     11927     11928
     11927     11929     11927     11930     11930     11931     11930     11932
     11930     11933     11933     11934     11933     11935     11933     11936
     11936     11937     11936     11938     11936     11939     11939     11940
     11939     11941     11939     11942     11942     11943     11942     11944
     11942     11945     11945     11946     11945     11947     11945     11948
     11948     11949     11948     11950     11948     11951     11952     11956
     11952     11960     11952     11964     11956     11957     11956     11958
     11956     11959     11960     11961     11960     11962     11960     11963
     11964     11965     11964     11966     11964     11967     11952     11953
     11953     11954     11953     11955     11953     11968     11968     11969
     11968     11970     11968     11974     11975     11976     11974     11971
     11971     11975     11971     11972     11971     11973     11976     11977
     11976     11978     11976     11979     11979     11980     11979     11987
     11979     11981     11987     11988     11987     11989     11987     11990
     11981     11982     11982     11984     11982     11983     11984     11985
     11984     11986     11984     11996     11996     11997     11996     11998
     11996     11999     11999     12000     11999     12001     11999     12002
     12002     12003     12002     12004     12004     12005     12004     12006
     12006     12007     12006     12008     12006     12009     12009     12010
     12009     12011     12011     12012     12011     12013     12013     12014
     12013     12015     12013     12016     12016     12017     12016     12018
     12018     12019     12018     12020     12020     12021     12020     12022
     12020     12023     12023     12024     12023     12025     12025     12026
     12025     12027     12027     12028     12027     12029     12027     12030
     12030     12031     12030     12032     12030     12033     12033     12034
     12033     12035     12033     12036     12036     12037     12036     12038
     12036     12039     12039     12040     12039     12041     12039     12042
     11990     11991     11991     11993     11991     11992     11993     11994
     11993     11995     11993     12043     12043     12044     12043     12045
     12043     12046     12046     12047     12046     12048     12046     12049
     12049     12050     12049     12051     12049     12052     12052     12053
     12052     12054     12052     12055     12055     12056     12055     12057
     12055     12058     12058     12059     12058     12060     12058     12061
     12061     12062     12061     12063     12061     12064     12064     12065
     12064     12066     12064     12067     12067     12068     12067     12069
     12067     12070     12070     12071     12070     12072     12070     12073
     12073     12074     12073     12075     12073     12076     12076     12077
     12076     12078     12076     12079     12079     12080     12079     12081
     12079     12082     12082     12083     12082     12084     12082     12085
     12085     12086     12085     12087     12085     12088     12088     12089
     12088     12090     12088     12091     12092     12094     12092     12093
     12094     12095     12092     12138     12138     12139     12138     12140
     12138     12135     12135     12136     12135     12137     12092     12096
     12096     12097     12096     12098     12096     12099     12099     12130
     12130     12135     12130     12131     12131     12132     12131     12133
     12131     12134     12099     12100     12100     12101     12100     12102
     12102     12103     12102     12104     12102     12105     12105     12106
     12105     12128     12128     12129     12128     12130     12105     12107
     12107     12108     12107     12117     12117     12122     12122     12123
     12122     12124     12122     12125     12125     12126     12125     12127
     12125     12128     12117     12118     12118     12119     12118     12120
     12118     12121     12107     12109     12109     12110     12109     12111
     12109     12112     12112     12113     12112     12114     12112     12115
     12115     12116     12115     12117     12115     12141     12141     12142
     12141     12143     12143     12144     12143     12145     12143     12146
     12141     12147     12147     12148     12147     12149     12147     12150
     12150     12151     12150     12152     12150     12153     12153     12154
     12153     12155     12153     12156     12156     12157     12156     12158
     12158     12159     12158     12160     12158     12161     12156     12162
     12162     12163     12162     12164     12162     12165     12166     12168
     12166     12167     12168     12169     12166     12212     12212     12213
     12212     12214     12212     12209     12209     12210     12209     12211
     12166     12170     12170     12171     12170     12172     12170     12173
     12173     12204     12204     12209     12204     12205     12205     12206
     12205     12207     12205     12208     12173     12174     12174     12175
     12174     12176     12176     12177     12176     12178     12176     12179
     12179     12180     12179     12202     12202     12203     12202     12204
     12179     12181     12181     12182     12181     12191     12191     12196
     12196     12197     12196     12198     12196     12199     12199     12200
     12199     12201     12199     12202     12191     12192     12192     12193
     12192     12194     12192     12195     12181     12183     12183     12184
     12183     12185     12183     12186     12186     12187     12186     12188
     12186     12189     12189     12190     12189     12191     12189     12215
     12215     12216     12215     12217     12217     12218     12217     12219
     12217     12220     12215     12221     12221     12222     12221     12223
     12221     12224     12224     12225     12224     12226     12224     12227
     12227     12228     12227     12229     12227     12230     12230     12231
     12230     12232     12232     12233     12232     12234     12232     12235
     12230     12236     12236     12237     12236     12238     12236     12239
     12240     12241     12240     12245     12240     12249     12241     12242
     12241     12243     12241     12244     12245     12246     12245     12247
     12245     12248     12249     12250     12249     12251     12249     12252
     12240     12253     12253     12254     12253     12255     12253     12256
     12256     12257     12256     12258     12256     12262     12263     12264
     12262     12259     12259     12263     12259     12260     12259     12261
     12264     12265     12264     12266     12264     12267     12267     12268
     12267     12275     12267     12269     12275     12276     12275     12277
     12275     12278     12269     12270     12270     12272     12270     12271
     12272     12273     12272     12274     12272     12284     12284     12285
     12284     12286     12284     12287     12287     12288     12287     12289
     12287     12290     12290     12291     12290     12292     12290     12293
     12293     12294     12293     12295     12293     12296     12296     12297
     12296     12298     12296     12299     12299     12300     12299     12301
     12299     12302     12302     12303     12302     12304     12304     12305
     12304     12306     12306     12307     12306     12308     12306     12309
     12309     12310     12309     12311     12311     12312     12311     12313
     12313     12314     12313     12315     12313     12316     12316     12317
     12316     12318     12316     12319     12319     12320     12319     12321
     12319     12322     12322     12323     12322     12324     12322     12325
     12325     12326     12325     12327     12325     12328     12278     12279
     12279     12281     12279     12280     12281     12282     12281     12283
     12281     12329     12329     12330     12329     12331     12329     12332
     12332     12333     12332     12334     12332     12335     12335     12336
     12335     12337     12335     12338     12338     12339     12338     12340
     12338     12341     12341     12342     12341     12343     12341     12344
     12344     12345     12344     12346     12344     12347     12347     12348
     12347     12349     12347     12350     12350     12351     12350     12352
     12350     12353     12353     12354     12353     12355     12353     12356
     12356     12357     12356     12358     12356     12359     12359     12360
     12359     12361     12359     12362     12362     12363     12362     12364
     12362     12365     12365     12366     12365     12367     12365     12368
     12368     12369     12368     12370     12368     12371     12371     12372
     12371     12373     12371     12374     12374     12375     12374     12376
     12374     12377     12378     12380     12378     12379     12380     12381
     12378     12424     12424     12425     12424     12426     12424     12421
     12421     12422     12421     12423     12378     12382     12382     12383
     12382     12384     12382     12385     12385     12416     12416     12421
     12416     12417     12417     12418     12417     12419     12417     12420
     12385     12386     12386     12387     12386     12388     12388     12389
     12388     12390     12388     12391     12391     12392     12391     12414
     12414     12415     12414     12416     12391     12393     12393     12394
     12393     12403     12403     12408     12408     12409     12408     12410
     12408     12411     12411     12412     12411     12413     12411     12414
     12403     12404     12404     12405     12404     12406     12404     12407
     12393     12395     12395     12396     12395     12397     12395     12398
     12398     12399     12398     12400     12398     12401     12401     12402
     12401     12403     12401     12427     12427     12428     12427     12429
     12429     12430     12429     12431     12429     12432     12427     12433
     12433     12434     12433     12435     12433     12436     12436     12437
     12436     12438     12436     12439     12439     12440     12439     12441
     12439     12442     12442     12443     12442     12444     12444     12445
     12444     12446     12444     12447     12442     12448     12448     12449
     12448     12450     12448     12451     12452     12453     12452     12454
     12452     12455     12452     12456     12456     12457     12456     12458
     12456     12459     12459     12460     12459     12461     12459     12465
     12467     12466     12465     12462     12462     12466     12462     12463
     12462     12464     12467     12468     12467     12469     12467     12470
     12470     12471     12470     12478     12470     12472     12478     12479
     12478     12480     12478     12481     12472     12473     12473     12475
     12473     12474     12475     12476     12475     12477     12475     12487
     12487     12488     12487     12489     12487     12490     12490     12491
     12490     12492     12490     12493     12493     12494     12493     12495
     12495     12496     12495     12497     12497     12498     12497     12499
     12497     12500     12500     12501     12500     12502     12502     12503
     12502     12504     12504     12505     12504     12506     12504     12507
     12507     12508     12507     12509     12509     12510     12509     12511
     12511     12512     12511     12513     12511     12514     12514     12515
     12514     12516     12516     12517     12516     12518     12518     12519
     12518     12520     12518     12521     12521     12522     12521     12523
     12521     12524     12524     12525     12524     12526     12524     12527
     12527     12528     12527     12529     12527     12530     12530     12531
     12530     12532     12530     12533     12481     12482     12482     12484
     12482     12483     12484     12485     12484     12486     12484     12534
     12534     12535     12534     12536     12534     12537     12537     12538
     12537     12539     12537     12540     12540     12541     12540     12542
     12540     12543     12543     12544     12543     12545     12543     12546
     12546     12547     12546     12548     12546     12549     12549     12550
     12549     12551     12549     12552     12552     12553     12552     12554
     12552     12555     12555     12556     12555     12557     12555     12558
     12558     12559     12558     12560     12558     12561     12561     12562
     12561     12563     12561     12564     12564     12565     12564     12566
     12564     12567     12567     12568     12567     12569     12567     12570
     12570     12571     12570     12572     12570     12573     12573     12574
     12573     12575     12573     12576     12576     12577     12576     12578
     12576     12579     12579     12580     12579     12581     12579     12582
     12583     12584     12583     12585     12583     12586     12583     12587
     12587     12588     12587     12589     12587     12590     12590     12591
     12590     12592     12590     12596     12598     12597     12596     12593
     12593     12597     12593     12594     12593     12595     12598     12599
     12598     12600     12598     12601     12601     12602     12601     12609
     12601     12603     12609     12610     12609     12611     12609     12612
     12603     12604     12604     12606     12604     12605     12606     12607
     12606     12608     12606     12618     12618     12619     12618     12620
     12618     12621     12621     12622     12621     12623     12621     12624
     12624     12625     12624     12626     12624     12627     12627     12628
     12627     12629     12627     12630     12630     12631     12630     12632
     12630     12633     12633     12634     12633     12635     12633     12636
     12636     12637     12636     12638     12638     12639     12638     12640
     12640     12641     12640     12642     12640     12643     12643     12644
     12643     12645     12643     12646     12646     12647     12646     12648
     12646     12649     12649     12650     12649     12651     12649     12652
     12652     12653     12652     12654     12652     12655     12655     12656
     12655     12657     12655     12658     12658     12659     12658     12660
     12658     12661     12661     12662     12661     12663     12661     12664
     12612     12613     12613     12615     12613     12614     12615     12616
     12615     12617     12615     12665     12665     12666     12665     12667
     12665     12668     12668     12669     12668     12670     12668     12671
     12671     12672     12671     12673     12671     12674     12674     12675
     12674     12676     12674     12677     12677     12678     12677     12679
     12677     12680     12680     12681     12680     12682     12680     12683
     12683     12684     12683     12685     12683     12686     12686     12687
     12686     12688     12686     12689     12689     12690     12689     12691
     12689     12692     12692     12693     12692     12694     12692     12695
     12695     12696     12695     12697     12695     12698     12698     12699
     12698     12700     12698     12701     12701     12702     12701     12703
     12701     12704     12704     12705     12704     12706     12704     12707
     12707     12708     12707     12709     12707     12710     12710     12711
     12710     12712     12710     12713     12714     12716     12714     12715
     12716     12717     12714     12760     12760     12761     12760     12762
     12760     12757     12757     12758     12757     12759     12714     12718
     12718     12719     12718     12720     12718     12721     12721     12752
     12752     12757     12752     12753     12753     12754     12753     12755
     12753     12756     12721     12722     12722     12723     12722     12724
     12724     12725     12724     12726     12724     12727     12727     12728
     12727     12750     12750     12751     12750     12752     12727     12729
     12729     12730     12729     12739     12739     12744     12744     12745
     12744     12746     12744     12747     12747     12748     12747     12749
     12747     12750     12739     12740     12740     12741     12740     12742
     12740     12743     12729     12731     12731     12732     12731     12733
     12731     12734     12734     12735     12734     12736     12734     12737
     12737     12738     12737     12739     12737     12763     12763     12764
     12763     12765     12765     12766     12765     12767     12765     12768
     12763     12769     12769     12770     12769     12771     12769     12772
     12772     12773     12772     12774     12772     12775     12775     12776
     12775     12777     12775     12778     12778     12779     12778     12780
     12780     12781     12780     12782     12780     12783     12778     12784
     12784     12785     12784     12786     12784     12787     12788     12789
     12788     12793     12788     12797     12789     12790     12789     12791
     12789     12792     12793     12794     12793     12795     12793     12796
     12797     12798     12797     12799     12797     12800     12788     12801
     12801     12802     12801     12803     12801     12804     12804     12805
     12804     12806     12804     12810     12811     12812     12810     12807
     12807     12811     12807     12808     12807     12809     12812     12813
     12812     12814     12812     12815     12815     12816     12815     12823
     12815     12817     12823     12824     12823     12825     12823     12826
     12817     12818     12818     12820     12818     12819     12820     12821
     12820     12822     12820     12832     12832     12833     12832     12834
     12832     12835     12835     12836     12835     12837     12835     12838
     12838     12839     12838     12840     12838     12841     12841     12842
     12841     12843     12841     12844     12844     12845     12844     12846
     12844     12847     12847     12848     12847     12849     12847     12850
     12850     12851     12850     12852     12852     12853     12852     12854
     12854     12855     12854     12856     12854     12857     12857     12858
     12857     12859     12859     12860     12859     12861     12861     12862
     12861     12863     12861     12864     12864     12865     12864     12866
     12864     12867     12867     12868     12867     12869     12867     12870
     12870     12871     12870     12872     12870     12873     12873     12874
     12873     12875     12873     12876     12826     12827     12827     12829
     12827     12828     12829     12830     12829     12831     12829     12877
     12877     12878     12877     12879     12877     12880     12880     12881
     12880     12882     12880     12883     12883     12884     12883     12885
     12883     12886     12886     12887     12886     12888     12886     12889
     12889     12890     12889     12891     12889     12892     12892     12893
     12892     12894     12892     12895     12895     12896     12895     12897
     12895     12898     12898     12899     12898     12900     12898     12901
     12901     12902     12901     12903     12901     12904     12904     12905
     12904     12906     12904     12907     12907     12908     12907     12909
     12907     12910     12910     12911     12910     12912     12910     12913
     12913     12914     12913     12915     12913     12916     12916     12917
     12916     12918     12916     12919     12919     12920     12919     12921
     12919     12922     12922     12923     12922     12924     12922     12925
     12926     12928     12926     12927     12928     12929     12926     12972
     12972     12973     12972     12974     12972     12969     12969     12970
     12969     12971     12926     12930     12930     12931     12930     12932
     12930     12933     12933     12964     12964     12969     12964     12965
     12965     12966     12965     12967     12965     12968     12933     12934
     12934     12935     12934     12936     12936     12937     12936     12938
     12936     12939     12939     12940     12939     12962     12962     12963
     12962     12964     12939     12941     12941     12942     12941     12951
     12951     12956     12956     12957     12956     12958     12956     12959
     12959     12960     12959     12961     12959     12962     12951     12952
     12952     12953     12952     12954     12952     12955     12941     12943
     12943     12944     12943     12945     12943     12946     12946     12947
     12946     12948     12946     12949     12949     12950     12949     12951
     12949     12975     12975     12976     12975     12977     12977     12978
     12977     12979     12977     12980     12975     12981     12981     12982
     12981     12983     12981     12984     12984     12985     12984     12986
     12984     12987     12987     12988     12987     12989     12987     12990
     12990     12991     12990     12992     12992     12993     12992     12994
     12992     12995     12990     12996     12996     12997     12996     12998
     12996     12999     13075     13076     13075     13077     13075     13078
     13075     13072     13072     13073     13072     13074     13072     13069
     13069     13070     13069     13071     13069     13066     13066     13067
     13066     13068     13066     13063     13063     13064     13063     13065
     13063     13060     13060     13061     13060     13062     13060     13057
     13057     13058     13057     13059     13057     13054     13054     13055
     13054     13056     13054     13051     13051     13052     13051     13053
     13051     13048     13048     13049     13048     13050     13048     13045
     13045     13046     13045     13047     13045     13042     13042     13043
     13042     13044     13042     13039     13039     13040     13039     13041
     13039     13037     13037     13038     13035     13036     13035     13031
     13031     13032     13031     13033     13033     13034     13031     13029
     13029     13030     13029     13024     13024     13025     13024     13026
     13024     13022     13022     13019     13023     13019     13020     13019
     13021     13019     13023     13016     13016     13017     13016     13018
     13016     13013     13013     13014     13013     13015     13013     13000
     13000     13009     13000     13005     13000     13001     13009     13010
     13009     13011     13009     13012     13005     13006     13005     13007
     13005     13008     13001     13002     13001     13003     13001     13004
     13029     13027     13027     13028     13027     13079     13079     13081
     13081     13082     13081     13083     13081     13084     13084     13085
     13084     13086     13084     13087     13087     13088     13087     13089
     13087     13090     13090     13091     13090     13092     13090     13093
     13093     13094     13093     13095     13093     13096     13096     13097
     13096     13098     13096     13099     13099     13100     13099     13101
     13099     13102     13102     13103     13104     13105     13104     13106
     13106     13107     13106     13108     13106     13109     13109     13110
     13109     13111     13109     13112     13112     13113     13112     13114
     13112     13115     13115     13116     13115     13117     13115     13118
     13118     13119     13118     13120     13118     13121     13121     13122
     13121     13123     13121     13124     13124     13125     13124     13126
     13124     13127     13127     13128     13127     13129     13127     13130
     13035     13037     13102     13104     13079     13080     13206     13207
     13206     13208     13206     13209     13206     13203     13203     13204
     13203     13205     13203     13200     13200     13201     13200     13202
     13200     13197     13197     13198     13197     13199     13197     13194
     13194     13195     13194     13196     13194     13191     13191     13192
     13191     13193     13191     13188     13188     13189     13188     13190
     13188     13185     13185     13186     13185     13187     13185     13182
     13182     13183     13182     13184     13182     13179     13179     13180
     13179     13181     13179     13176     13176     13177     13176     13178
     13176     13173     13173     13174     13173     13175     13173     13170
     13170     13171     13170     13172     13170     13168     13168     13169
     13166     13167     13166     13162     13162     13163     13162     13164
     13164     13165     13162     13160     13160     13161     13160     13155
     13155     13156     13155     13157     13155     13153     13153     13150
     13154     13150     13151     13150     13152     13150     13154     13147
     13147     13148     13147     13149     13147     13144     13144     13145
     13144     13146     13144     13131     13131     13140     13131     13136
     13131     13132     13140     13141     13140     13142     13140     13143
     13136     13137     13136     13138     13136     13139     13132     13133
     13132     13134     13132     13135     13160     13158     13158     13159
     13158     13210     13210     13212     13212     13213     13212     13214
     13212     13215     13215     13216     13215     13217     13215     13218
     13218     13219     13218     13220     13218     13221     13221     13222
     13221     13223     13221     13224     13224     13225     13224     13226
     13224     13227     13227     13228     13227     13229     13227     13230
     13230     13231     13230     13232     13230     13233     13233     13234
     13235     13236     13235     13237     13237     13238     13237     13239
     13237     13240     13240     13241     13240     13242     13240     13243
     13243     13244     13243     13245     13243     13246     13246     13247
     13246     13248     13246     13249     13249     13250     13249     13251
     13249     13252     13252     13253     13252     13254     13252     13255
     13255     13256     13255     13257     13255     13258     13258     13259
     13258     13260     13258     13261     13166     13168     13233     13235
     13210     13211     13337     13338     13337     13339     13337     13340
     13337     13334     13334     13335     13334     13336     13334     13331
     13331     13332     13331     13333     13331     13328     13328     13329
     13328     13330     13328     13325     13325     13326     13325     13327
     13325     13322     13322     13323     13322     13324     13322     13319
     13319     13320     13319     13321     13319     13316     13316     13317
     13316     13318     13316     13313     13313     13314     13313     13315
     13313     13310     13310     13311     13310     13312     13310     13307
     13307     13308     13307     13309     13307     13304     13304     13305
     13304     13306     13304     13301     13301     13302     13301     13303
     13301     13299     13299     13300     13297     13298     13297     13293
     13293     13294     13293     13295     13295     13296     13293     13291
     13291     13292     13291     13286     13286     13287     13286     13288
     13286     13284     13284     13281     13285     13281     13282     13281
     13283     13281     13285     13278     13278     13279     13278     13280
     13278     13275     13275     13276     13275     13277     13275     13262
     13262     13271     13262     13267     13262     13263     13271     13272
     13271     13273     13271     13274     13267     13268     13267     13269
     13267     13270     13263     13264     13263     13265     13263     13266
     13291     13289     13289     13290     13289     13341     13341     13343
     13343     13344     13343     13345     13343     13346     13346     13347
     13346     13348     13346     13349     13349     13350     13349     13351
     13349     13352     13352     13353     13352     13354     13352     13355
     13355     13356     13355     13357     13355     13358     13358     13359
     13358     13360     13358     13361     13361     13362     13361     13363
     13361     13364     13364     13365     13366     13367     13366     13368
     13368     13369     13368     13370     13368     13371     13371     13372
     13371     13373     13371     13374     13374     13375     13374     13376
     13374     13377     13377     13378     13377     13379     13377     13380
     13380     13381     13380     13382     13380     13383     13383     13384
     13383     13385     13383     13386     13386     13387     13386     13388
     13386     13389     13389     13390     13389     13391     13389     13392
     13297     13299     13364     13366     13341     13342     13468     13469
     13468     13470     13468     13471     13468     13465     13465     13466
     13465     13467     13465     13462     13462     13463     13462     13464
     13462     13459     13459     13460     13459     13461     13459     13456
     13456     13457     13456     13458     13456     13453     13453     13454
     13453     13455     13453     13450     13450     13451     13450     13452
     13450     13447     13447     13448     13447     13449     13447     13444
     13444     13445     13444     13446     13444     13441     13441     13442
     13441     13443     13441     13438     13438     13439     13438     13440
     13438     13435     13435     13436     13435     13437     13435     13432
     13432     13433     13432     13434     13432     13430     13430     13431
     13428     13429     13428     13424     13424     13425     13424     13426
     13426     13427     13424     13422     13422     13423     13422     13417
     13417     13418     13417     13419     13417     13415     13415     13412
     13416     13412     13413     13412     13414     13412     13416     13409
     13409     13410     13409     13411     13409     13406     13406     13407
     13406     13408     13406     13393     13393     13402     13393     13398
     13393     13394     13402     13403     13402     13404     13402     13405
     13398     13399     13398     13400     13398     13401     13394     13395
     13394     13396     13394     13397     13422     13420     13420     13421
     13420     13472     13472     13474     13474     13475     13474     13476
     13474     13477     13477     13478     13477     13479     13477     13480
     13480     13481     13480     13482     13480     13483     13483     13484
     13483     13485     13483     13486     13486     13487     13486     13488
     13486     13489     13489     13490     13489     13491     13489     13492
     13492     13493     13492     13494     13492     13495     13495     13496
     13497     13498     13497     13499     13499     13500     13499     13501
     13499     13502     13502     13503     13502     13504     13502     13505
     13505     13506     13505     13507     13505     13508     13508     13509
     13508     13510     13508     13511     13511     13512     13511     13513
     13511     13514     13514     13515     13514     13516     13514     13517
     13517     13518     13517     13519     13517     13520     13520     13521
     13520     13522     13520     13523     13428     13430     13495     13497
     13472     13473     13599     13600     13599     13601     13599     13602
     13599     13596     13596     13597     13596     13598     13596     13593
     13593     13594     13593     13595     13593     13590     13590     13591
     13590     13592     13590     13587     13587     13588     13587     13589
     13587     13584     13584     13585     13584     13586     13584     13581
     13581     13582     13581     13583     13581     13578     13578     13579
     13578     13580     13578     13575     13575     13576     13575     13577
     13575     13572     13572     13573     13572     13574     13572     13569
     13569     13570     13569     13571     13569     13566     13566     13567
     13566     13568     13566     13563     13563     13564     13563     13565
     13563     13561     13561     13562     13559     13560     13559     13555
     13555     13556     13555     13557     13557     13558     13555     13553
     13553     13554     13553     13548     13548     13549     13548     13550
     13548     13546     13546     13543     13547     13543     13544     13543
     13545     13543     13547     13540     13540     13541     13540     13542
     13540     13537     13537     13538     13537     13539     13537     13524
     13524     13533     13524     13529     13524     13525     13533     13534
     13533     13535     13533     13536     13529     13530     13529     13531
     13529     13532     13525     13526     13525     13527     13525     13528
     13553     13551     13551     13552     13551     13603     13603     13605
     13605     13606     13605     13607     13605     13608     13608     13609
     13608     13610     13608     13611     13611     13612     13611     13613
     13611     13614     13614     13615     13614     13616     13614     13617
     13617     13618     13617     13619     13617     13620     13620     13621
     13620     13622     13620     13623     13623     13624     13623     13625
     13623     13626     13626     13627     13628     13629     13628     13630
     13630     13631     13630     13632     13630     13633     13633     13634
     13633     13635     13633     13636     13636     13637     13636     13638
     13636     13639     13639     13640     13639     13641     13639     13642
     13642     13643     13642     13644     13642     13645     13645     13646
     13645     13647     13645     13648     13648     13649     13648     13650
     13648     13651     13651     13652     13651     13653     13651     13654
     13559     13561     13626     13628     13603     13604     13655     13659
     13655     13663     13655     13667     13659     13660     13659     13661
     13659     13662     13663     13664     13663     13665     13663     13666
     13667     13668     13667     13669     13667     13670     13655     13656
     13656     13657     13656     13658     13656     13671     13671     13672
     13671     13673     13671     13677     13678     13679     13677     13674
     13674     13678     13674     13675     13674     13676     13679     13680
     13679     13681     13679     13682     13682     13683     13682     13690
     13682     13684     13690     13691     13690     13692     13690     13693
     13684     13685     13685     13687     13685     13686     13687     13688
     13687     13689     13687     13699     13699     13700     13699     13701
     13699     13702     13702     13703     13702     13704     13702     13705
     13705     13706     13705     13707     13707     13708     13707     13709
     13709     13710     13709     13711     13709     13712     13712     13713
     13712     13714     13714     13715     13714     13716     13716     13717
     13716     13718     13716     13719     13719     13720     13719     13721
     13721     13722     13721     13723     13723     13724     13723     13725
     13723     13726     13726     13727     13726     13728     13728     13729
     13728     13730     13730     13731     13730     13732     13730     13733
     13733     13734     13733     13735     13733     13736     13736     13737
     13736     13738     13736     13739     13739     13740     13739     13741
     13739     13742     13742     13743     13742     13744     13742     13745
     13693     13694     13694     13696     13694     13695     13696     13697
     13696     13698     13696     13746     13746     13747     13746     13748
     13746     13749     13749     13750     13749     13751     13749     13752
     13752     13753     13752     13754     13752     13755     13755     13756
     13755     13757     13755     13758     13758     13759     13758     13760
     13758     13761     13761     13762     13761     13763     13761     13764
     13764     13765     13764     13766     13764     13767     13767     13768
     13767     13769     13767     13770     13770     13771     13770     13772
     13770     13773     13773     13774     13773     13775     13773     13776
     13776     13777     13776     13778     13776     13779     13779     13780
     13779     13781     13779     13782     13782     13783     13782     13784
     13782     13785     13785     13786     13785     13787     13785     13788
     13788     13789     13788     13790     13788     13791     13791     13792
     13791     13793     13791     13794     13795     13797     13795     13796
     13797     13798     13795     13841     13841     13842     13841     13843
     13841     13838     13838     13839     13838     13840     13795     13799
     13799     13800     13799     13801     13799     13802     13802     13833
     13833     13838     13833     13834     13834     13835     13834     13836
     13834     13837     13802     13803     13803     13804     13803     13805
     13805     13806     13805     13807     13805     13808     13808     13809
     13808     13831     13831     13832     13831     13833     13808     13810
     13810     13811     13810     13820     13820     13825     13825     13826
     13825     13827     13825     13828     13828     13829     13828     13830
     13828     13831     13820     13821     13821     13822     13821     13823
     13821     13824     13810     13812     13812     13813     13812     13814
     13812     13815     13815     13816     13815     13817     13815     13818
     13818     13819     13818     13820     13818     13844     13844     13845
     13844     13846     13846     13847     13846     13848     13846     13849
     13844     13850     13850     13851     13850     13852     13850     13853
     13853     13854     13853     13855     13853     13856     13856     13857
     13856     13858     13856     13859     13859     13860     13859     13861
     13861     13862     13861     13863     13861     13864     13859     13865
     13865     13866     13865     13867     13865     13868     13869     13870
     13869     13871     13869     13872     13869     13873     13873     13874
     13873     13875     13873     13876     13876     13877     13876     13878
     13876     13882     13884     13883     13882     13879     13879     13883
     13879     13880     13879     13881     13884     13885     13884     13886
     13884     13887     13887     13888     13887     13895     13887     13889
     13895     13896     13895     13897     13895     13898     13889     13890
     13890     13892     13890     13891     13892     13893     13892     13894
     13892     13904     13904     13905     13904     13906     13904     13907
     13907     13908     13907     13909     13907     13910     13910     13911
     13910     13912     13912     13913     13912     13914     13914     13915
     13914     13916     13914     13917     13917     13918     13917     13919
     13919     13920     13919     13921     13921     13922     13921     13923
     13921     13924     13924     13925     13924     13926     13926     13927
     13926     13928     13928     13929     13928     13930     13928     13931
     13931     13932     13931     13933     13933     13934     13933     13935
     13935     13936     13935     13937     13935     13938     13938     13939
     13938     13940     13938     13941     13941     13942     13941     13943
     13941     13944     13944     13945     13944     13946     13944     13947
     13947     13948     13947     13949     13947     13950     13898     13899
     13899     13901     13899     13900     13901     13902     13901     13903
     13901     13951     13951     13952     13951     13953     13951     13954
     13954     13955     13954     13956     13954     13957     13957     13958
     13957     13959     13957     13960     13960     13961     13960     13962
     13960     13963     13963     13964     13963     13965     13963     13966
     13966     13967     13966     13968     13966     13969     13969     13970
     13969     13971     13969     13972     13972     13973     13972     13974
     13972     13975     13975     13976     13975     13977     13975     13978
     13978     13979     13978     13980     13978     13981     13981     13982
     13981     13983     13981     13984     13984     13985     13984     13986
     13984     13987     13987     13988     13987     13989     13987     13990
     13990     13991     13990     13992     13990     13993     13993     13994
     13993     13995     13993     13996     13996     13997     13996     13998
     13996     13999     14000     14001     14000     14005     14000     14009
     14001     14002     14001     14003     14001     14004     14005     14006
     14005     14007     14005     14008     14009     14010     14009     14011
     14009     14012     14000     14013     14013     14014     14013     14015
     14013     14016     14016     14017     14016     14018     14016     14022
     14023     14024     14022     14019     14019     14023     14019     14020
     14019     14021     14024     14025     14024     14026     14024     14027
     14027     14028     14027     14035     14027     14029     14035     14036
     14035     14037     14035     14038     14029     14030     14030     14032
     14030     14031     14032     14033     14032     14034     14032     14044
     14044     14045     14044     14046     14044     14047     14047     14048
     14047     14049     14047     14050     14050     14051     14050     14052
     14050     14053     14053     14054     14053     14055     14053     14056
     14056     14057     14056     14058     14056     14059     14059     14060
     14059     14061     14059     14062     14062     14063     14062     14064
     14064     14065     14064     14066     14066     14067     14066     14068
     14066     14069     14069     14070     14069     14071     14071     14072
     14071     14073     14073     14074     14073     14075     14073     14076
     14076     14077     14076     14078     14076     14079     14079     14080
     14079     14081     14079     14082     14082     14083     14082     14084
     14082     14085     14085     14086     14085     14087     14085     14088
     14038     14039     14039     14041     14039     14040     14041     14042
     14041     14043     14041     14089     14089     14090     14089     14091
     14089     14092     14092     14093     14092     14094     14092     14095
     14095     14096     14095     14097     14095     14098     14098     14099
     14098     14100     14098     14101     14101     14102     14101     14103
     14101     14104     14104     14105     14104     14106     14104     14107
     14107     14108     14107     14109     14107     14110     14110     14111
     14110     14112     14110     14113     14113     14114     14113     14115
     14113     14116     14116     14117     14116     14118     14116     14119
     14119     14120     14119     14121     14119     14122     14122     14123
     14122     14124     14122     14125     14125     14126     14125     14127
     14125     14128     14128     14129     14128     14130     14128     14131
     14131     14132     14131     14133     14131     14134     14134     14135
     14134     14136     14134     14137     14158     14159     14158     14154
     14158     14138     14158     14163     14138     14139     14138     14140
     14140     14141     14138     14142     14142     14143     14142     14144
     14144     14145     14142     14146     14146     14147     14146     14148
     14148     14149     14146     14150     14150     14151     14150     14154
     14154     14155     14154     14156     14156     14157     14150     14152
     14152     14153     14163     14160     14160     14164     14160     14161
     14160     14162     14164     14165     14165     14166     14165     14167
     14165     14168     14168     14169     14168     14176     14168     14170
     14176     14177     14176     14178     14176     14179     14170     14171
     14171     14173     14171     14172     14173     14174     14173     14175
     14173     14185     14185     14186     14185     14187     14185     14188
     14188     14189     14188     14190     14188     14191     14191     14192
     14191     14193     14193     14194     14193     14195     14195     14196
     14195     14197     14195     14198     14198     14199     14198     14200
     14200     14201     14200     14202     14202     14203     14202     14204
     14202     14205     14205     14206     14205     14207     14207     14208
     14207     14209     14209     14210     14209     14211     14209     14212
     14212     14213     14212     14214     14214     14215     14214     14216
     14216     14217     14216     14218     14216     14219     14219     14220
     14219     14221     14219     14222     14222     14223     14222     14224
     14222     14225     14225     14226     14225     14227     14225     14228
     14228     14229     14228     14230     14228     14231     14179     14180
     14180     14182     14180     14181     14182     14183     14182     14184
     14182     14232     14232     14233     14232     14234     14232     14235
     14235     14236     14235     14237     14235     14238     14238     14239
     14238     14240     14238     14241     14241     14242     14241     14243
     14241     14244     14244     14245     14244     14246     14244     14247
     14247     14248     14247     14249     14247     14250     14250     14251
     14250     14252     14250     14253     14253     14254     14253     14255
     14253     14256     14256     14257     14256     14258     14256     14259
     14259     14260     14259     14261     14259     14262     14262     14263
     14262     14264     14262     14265     14265     14266     14265     14267
     14265     14268     14268     14269     14268     14270     14268     14271
     14271     14272     14271     14273     14271     14274     14274     14275
     14274     14276     14274     14277     14277     14278     14277     14279
     14277     14280     14281     14282     14281     14283     14281     14284
     14281     14285     14285     14286     14285     14287     14285     14288
     14288     14289     14288     14290     14288     14294     14296     14295
     14294     14291     14291     14295     14291     14292     14291     14293
     14296     14297     14296     14298     14296     14299     14299     14300
     14299     14307     14299     14301     14307     14308     14307     14309
     14307     14310     14301     14302     14302     14304     14302     14303
     14304     14305     14304     14306     14304     14316     14316     14317
     14316     14318     14316     14319     14319     14320     14319     14321
     14319     14322     14322     14323     14322     14324     14324     14325
     14324     14326     14326     14327     14326     14328     14326     14329
     14329     14330     14329     14331     14331     14332     14331     14333
     14333     14334     14333     14335     14333     14336     14336     14337
     14336     14338     14338     14339     14338     14340     14340     14341
     14340     14342     14340     14343     14343     14344     14343     14345
     14345     14346     14345     14347     14347     14348     14347     14349
     14347     14350     14350     14351     14350     14352     14350     14353
     14353     14354     14353     14355     14353     14356     14356     14357
     14356     14358     14356     14359     14359     14360     14359     14361
     14359     14362     14310     14311     14311     14313     14311     14312
     14313     14314     14313     14315     14313     14363     14363     14364
     14363     14365     14363     14366     14366     14367     14366     14368
     14366     14369     14369     14370     14369     14371     14369     14372
     14372     14373     14372     14374     14372     14375     14375     14376
     14375     14377     14375     14378     14378     14379     14378     14380
     14378     14381     14381     14382     14381     14383     14381     14384
     14384     14385     14384     14386     14384     14387     14387     14388
     14387     14389     14387     14390     14390     14391     14390     14392
     14390     14393     14393     14394     14393     14395     14393     14396
     14396     14397     14396     14398     14396     14399     14399     14400
     14399     14401     14399     14402     14402     14403     14402     14404
     14402     14405     14405     14406     14405     14407     14405     14408
     14408     14409     14408     14410     14408     14411     14412     14413
     14412     14417     14412     14421     14413     14414     14413     14415
     14413     14416     14417     14418     14417     14419     14417     14420
     14421     14422     14421     14423     14421     14424     14412     14425
     14425     14426     14425     14427     14425     14428     14428     14429
     14428     14430     14428     14434     14435     14436     14434     14431
     14431     14435     14431     14432     14431     14433     14436     14437
     14436     14438     14436     14439     14439     14440     14439     14447
     14439     14441     14447     14448     14447     14449     14447     14450
     14441     14442     14442     14444     14442     14443     14444     14445
     14444     14446     14444     14456     14456     14457     14456     14458
     14456     14459     14459     14460     14459     14461     14459     14462
     14462     14463     14462     14464     14462     14465     14465     14466
     14465     14467     14465     14468     14468     14469     14468     14470
     14468     14471     14471     14472     14471     14473     14471     14474
     14474     14475     14474     14476     14476     14477     14476     14478
     14478     14479     14478     14480     14478     14481     14481     14482
     14481     14483     14483     14484     14483     14485     14485     14486
     14485     14487     14485     14488     14488     14489     14488     14490
     14488     14491     14491     14492     14491     14493     14491     14494
     14494     14495     14494     14496     14494     14497     14497     14498
     14497     14499     14497     14500     14450     14451     14451     14453
     14451     14452     14453     14454     14453     14455     14453     14501
     14501     14502     14501     14503     14501     14504     14504     14505
     14504     14506     14504     14507     14507     14508     14507     14509
     14507     14510     14510     14511     14510     14512     14510     14513
     14513     14514     14513     14515     14513     14516     14516     14517
     14516     14518     14516     14519     14519     14520     14519     14521
     14519     14522     14522     14523     14522     14524     14522     14525
     14525     14526     14525     14527     14525     14528     14528     14529
     14528     14530     14528     14531     14531     14532     14531     14533
     14531     14534     14534     14535     14534     14536     14534     14537
     14537     14538     14537     14539     14537     14540     14540     14541
     14540     14542     14540     14543     14543     14544     14543     14545
     14543     14546     14546     14547     14546     14548     14546     14549
     14625     14626     14625     14627     14625     14628     14625     14622
     14622     14623     14622     14624     14622     14619     14619     14620
     14619     14621     14619     14616     14616     14617     14616     14618
     14616     14613     14613     14614     14613     14615     14613     14610
     14610     14611     14610     14612     14610     14607     14607     14608
     14607     14609     14607     14604     14604     14605     14604     14606
     14604     14601     14601     14602     14601     14603     14601     14598
     14598     14599     14598     14600     14598     14595     14595     14596
     14595     14597     14595     14592     14592     14593     14592     14594
     14592     14589     14589     14590     14589     14591     14589     14587
     14587     14588     14585     14586     14585     14581     14581     14582
     14581     14583     14583     14584     14581     14579     14579     14580
     14579     14574     14574     14575     14574     14576     14574     14572
     14572     14569     14573     14569     14570     14569     14571     14569
     14573     14566     14566     14567     14566     14568     14566     14563
     14563     14564     14563     14565     14563     14550     14550     14559
     14550     14555     14550     14551     14559     14560     14559     14561
     14559     14562     14555     14556     14555     14557     14555     14558
     14551     14552     14551     14553     14551     14554     14579     14577
     14577     14578     14577     14629     14629     14631     14631     14632
     14631     14633     14631     14634     14634     14635     14634     14636
     14634     14637     14637     14638     14637     14639     14637     14640
     14640     14641     14640     14642     14640     14643     14643     14644
     14643     14645     14643     14646     14646     14647     14646     14648
     14646     14649     14649     14650     14649     14651     14649     14652
     14652     14653     14654     14655     14654     14656     14656     14657
     14656     14658     14656     14659     14659     14660     14659     14661
     14659     14662     14662     14663     14662     14664     14662     14665
     14665     14666     14665     14667     14665     14668     14668     14669
     14668     14670     14668     14671     14671     14672     14671     14673
     14671     14674     14674     14675     14674     14676     14674     14677
     14677     14678     14677     14679     14677     14680     14585     14587
     14652     14654     14629     14630     14756     14757     14756     14758
     14756     14759     14756     14753     14753     14754     14753     14755
     14753     14750     14750     14751     14750     14752     14750     14747
     14747     14748     14747     14749     14747     14744     14744     14745
     14744     14746     14744     14741     14741     14742     14741     14743
     14741     14738     14738     14739     14738     14740     14738     14735
     14735     14736     14735     14737     14735     14732     14732     14733
     14732     14734     14732     14729     14729     14730     14729     14731
     14729     14726     14726     14727     14726     14728     14726     14723
     14723     14724     14723     14725     14723     14720     14720     14721
     14720     14722     14720     14718     14718     14719     14716     14717
     14716     14712     14712     14713     14712     14714     14714     14715
     14712     14710     14710     14711     14710     14705     14705     14706
     14705     14707     14705     14703     14703     14700     14704     14700
     14701     14700     14702     14700     14704     14697     14697     14698
     14697     14699     14697     14694     14694     14695     14694     14696
     14694     14681     14681     14690     14681     14686     14681     14682
     14690     14691     14690     14692     14690     14693     14686     14687
     14686     14688     14686     14689     14682     14683     14682     14684
     14682     14685     14710     14708     14708     14709     14708     14760
     14760     14762     14762     14763     14762     14764     14762     14765
     14765     14766     14765     14767     14765     14768     14768     14769
     14768     14770     14768     14771     14771     14772     14771     14773
     14771     14774     14774     14775     14774     14776     14774     14777
     14777     14778     14777     14779     14777     14780     14780     14781
     14780     14782     14780     14783     14783     14784     14785     14786
     14785     14787     14787     14788     14787     14789     14787     14790
     14790     14791     14790     14792     14790     14793     14793     14794
     14793     14795     14793     14796     14796     14797     14796     14798
     14796     14799     14799     14800     14799     14801     14799     14802
     14802     14803     14802     14804     14802     14805     14805     14806
     14805     14807     14805     14808     14808     14809     14808     14810
     14808     14811     14716     14718     14783     14785     14760     14761
     14887     14888     14887     14889     14887     14890     14887     14884
     14884     14885     14884     14886     14884     14881     14881     14882
     14881     14883     14881     14878     14878     14879     14878     14880
     14878     14875     14875     14876     14875     14877     14875     14872
     14872     14873     14872     14874     14872     14869     14869     14870
     14869     14871     14869     14866     14866     14867     14866     14868
     14866     14863     14863     14864     14863     14865     14863     14860
     14860     14861     14860     14862     14860     14857     14857     14858
     14857     14859     14857     14854     14854     14855     14854     14856
     14854     14851     14851     14852     14851     14853     14851     14849
     14849     14850     14847     14848     14847     14843     14843     14844
     14843     14845     14845     14846     14843     14841     14841     14842
     14841     14836     14836     14837     14836     14838     14836     14834
     14834     14831     14835     14831     14832     14831     14833     14831
     14835     14828     14828     14829     14828     14830     14828     14825
     14825     14826     14825     14827     14825     14812     14812     14821
     14812     14817     14812     14813     14821     14822     14821     14823
     14821     14824     14817     14818     14817     14819     14817     14820
     14813     14814     14813     14815     14813     14816     14841     14839
     14839     14840     14839     14891     14891     14893     14893     14894
     14893     14895     14893     14896     14896     14897     14896     14898
     14896     14899     14899     14900     14899     14901     14899     14902
     14902     14903     14902     14904     14902     14905     14905     14906
     14905     14907     14905     14908     14908     14909     14908     14910
     14908     14911     14911     14912     14911     14913     14911     14914
     14914     14915     14916     14917     14916     14918     14918     14919
     14918     14920     14918     14921     14921     14922     14921     14923
     14921     14924     14924     14925     14924     14926     14924     14927
     14927     14928     14927     14929     14927     14930     14930     14931
     14930     14932     14930     14933     14933     14934     14933     14935
     14933     14936     14936     14937     14936     14938     14936     14939
     14939     14940     14939     14941     14939     14942     14847     14849
     14914     14916     14891     14892     14943     14947     14943     14951
     14943     14955     14947     14948     14947     14949     14947     14950
     14951     14952     14951     14953     14951     14954     14955     14956
     14955     14957     14955     14958     14943     14944     14944     14945
     14944     14946     14944     14959     14959     14960     14959     14961
     14959     14965     14966     14967     14965     14962     14962     14966
     14962     14963     14962     14964     14967     14968     14967     14969
     14967     14970     14970     14971     14970     14978     14970     14972
     14978     14979     14978     14980     14978     14981     14972     14973
     14973     14975     14973     14974     14975     14976     14975     14977
     14975     14987     14987     14988     14987     14989     14987     14990
     14990     14991     14990     14992     14990     14993     14993     14994
     14993     14995     14993     14996     14996     14997     14996     14998
     14996     14999     14999     15000     14999     15001     14999     15002
     15002     15003     15002     15004     15002     15005     15005     15006
     15005     15007     15007     15008     15007     15009     15009     15010
     15009     15011     15009     15012     15012     15013     15012     15014
     15012     15015     15015     15016     15015     15017     15015     15018
     15018     15019     15018     15020     15018     15021     15021     15022
     15021     15023     15021     15024     15024     15025     15024     15026
     15024     15027     15027     15028     15027     15029     15027     15030
     15030     15031     15030     15032     15030     15033     14981     14982
     14982     14984     14982     14983     14984     14985     14984     14986
     14984     15034     15034     15035     15034     15036     15034     15037
     15037     15038     15037     15039     15037     15040     15040     15041
     15040     15042     15040     15043     15043     15044     15043     15045
     15043     15046     15046     15047     15046     15048     15046     15049
     15049     15050     15049     15051     15049     15052     15052     15053
     15052     15054     15052     15055     15055     15056     15055     15057
     15055     15058     15058     15059     15058     15060     15058     15061
     15061     15062     15061     15063     15061     15064     15064     15065
     15064     15066     15064     15067     15067     15068     15067     15069
     15067     15070     15070     15071     15070     15072     15070     15073
     15073     15074     15073     15075     15073     15076     15077     15078
     15077     15079     15077     15080     15077     15081     15085     15083
     15083     15081     15083     15084     15081     15082     15081     15086
     15094     15093     15086     15087     15086     15088     15086     15092
     15092     15089     15089     15093     15089     15090     15089     15091
     15094     15095     15094     15096     15094     15097     15097     15098
     15097     15105     15097     15099     15105     15106     15105     15107
     15105     15108     15099     15100     15100     15102     15100     15101
     15102     15103     15102     15104     15102     15114     15114     15115
     15114     15116     15114     15117     15117     15118     15117     15119
     15117     15120     15120     15121     15120     15122     15122     15123
     15122     15124     15124     15125     15124     15126     15124     15127
     15127     15128     15127     15129     15129     15130     15129     15131
     15131     15132     15131     15133     15131     15134     15134     15135
     15134     15136     15136     15137     15136     15138     15138     15139
     15138     15140     15138     15141     15141     15142     15141     15143
     15143     15144     15143     15145     15145     15146     15145     15147
     15145     15148     15148     15149     15148     15150     15148     15151
     15151     15152     15151     15153     15151     15154     15154     15155
     15154     15156     15154     15157     15157     15158     15157     15159
     15157     15160     15108     15109     15109     15111     15109     15110
     15111     15112     15111     15113     15111     15161     15161     15162
     15161     15163     15161     15164     15164     15165     15164     15166
     15164     15167     15167     15168     15167     15169     15167     15170
     15170     15171     15170     15172     15170     15173     15173     15174
     15173     15175     15173     15176     15176     15177     15176     15178
     15176     15179     15179     15180     15179     15181     15179     15182
     15182     15183     15182     15184     15182     15185     15185     15186
     15185     15187     15185     15188     15188     15189     15188     15190
     15188     15191     15191     15192     15191     15193     15191     15194
     15194     15195     15194     15196     15194     15197     15197     15198
     15197     15199     15197     15200     15200     15201     15200     15202
     15200     15203     15203     15204     15203     15205     15203     15206
     15206     15207     15206     15208     15206     15209     15210     15212
     15210     15211     15212     15213     15210     15256     15256     15257
     15256     15258     15256     15253     15253     15254     15253     15255
     15210     15214     15214     15215     15214     15216     15214     15217
     15217     15248     15248     15253     15248     15249     15249     15250
     15249     15251     15249     15252     15217     15218     15218     15219
     15218     15220     15220     15221     15220     15222     15220     15223
     15223     15224     15223     15246     15246     15247     15246     15248
     15223     15225     15225     15226     15225     15235     15235     15240
     15240     15241     15240     15242     15240     15243     15243     15244
     15243     15245     15243     15246     15235     15236     15236     15237
     15236     15238     15236     15239     15225     15227     15227     15228
     15227     15229     15227     15230     15230     15231     15230     15232
     15230     15233     15233     15234     15233     15235     15233     15259
     15259     15260     15259     15261     15261     15262     15261     15263
     15261     15264     15259     15265     15265     15266     15265     15267
     15265     15268     15268     15269     15268     15270     15268     15271
     15271     15272     15271     15273     15271     15274     15274     15275
     15274     15276     15276     15277     15276     15278     15276     15279
     15274     15280     15280     15281     15280     15282     15280     15283
     15284     15285     15284     15286     15284     15287     15284     15288
     15288     15289     15288     15290     15288     15291     15291     15292
     15291     15293     15291     15297     15299     15298     15297     15294
     15294     15298     15294     15295     15294     15296     15299     15300
     15299     15301     15299     15302     15302     15303     15302     15310
     15302     15304     15310     15311     15310     15312     15310     15313
     15304     15305     15305     15307     15305     15306     15307     15308
     15307     15309     15307     15319     15319     15320     15319     15321
     15319     15322     15322     15323     15322     15324     15322     15325
     15325     15326     15325     15327     15327     15328     15327     15329
     15329     15330     15329     15331     15329     15332     15332     15333
     15332     15334     15334     15335     15334     15336     15336     15337
     15336     15338     15336     15339     15339     15340     15339     15341
     15341     15342     15341     15343     15343     15344     15343     15345
     15343     15346     15346     15347     15346     15348     15348     15349
     15348     15350     15350     15351     15350     15352     15350     15353
     15353     15354     15353     15355     15353     15356     15356     15357
     15356     15358     15356     15359     15359     15360     15359     15361
     15359     15362     15362     15363     15362     15364     15362     15365
     15313     15314     15314     15316     15314     15315     15316     15317
     15316     15318     15316     15366     15366     15367     15366     15368
     15366     15369     15369     15370     15369     15371     15369     15372
     15372     15373     15372     15374     15372     15375     15375     15376
     15375     15377     15375     15378     15378     15379     15378     15380
     15378     15381     15381     15382     15381     15383     15381     15384
     15384     15385     15384     15386     15384     15387     15387     15388
     15387     15389     15387     15390     15390     15391     15390     15392
     15390     15393     15393     15394     15393     15395     15393     15396
     15396     15397     15396     15398     15396     15399     15399     15400
     15399     15401     15399     15402     15402     15403     15402     15404
     15402     15405     15405     15406     15405     15407     15405     15408
     15408     15409     15408     15410     15408     15411     15411     15412
     15411     15413     15411     15414     15415     15419     15415     15423
     15415     15427     15419     15420     15419     15421     15419     15422
     15423     15424     15423     15425     15423     15426     15427     15428
     15427     15429     15427     15430     15415     15416     15416     15417
     15416     15418     15416     15431     15431     15432     15431     15433
     15431     15437     15438     15439     15437     15434     15434     15438
     15434     15435     15434     15436     15439     15440     15439     15441
     15439     15442     15442     15443     15442     15450     15442     15444
     15450     15451     15450     15452     15450     15453     15444     15445
     15445     15447     15445     15446     15447     15448     15447     15449
     15447     15459     15459     15460     15459     15461     15459     15462
     15462     15463     15462     15464     15462     15465     15465     15466
     15465     15467     15465     15468     15468     15469     15468     15470
     15468     15471     15471     15472     15471     15473     15471     15474
     15474     15475     15474     15476     15474     15477     15477     15478
     15477     15479     15479     15480     15479     15481     15481     15482
     15481     15483     15481     15484     15484     15485     15484     15486
     15484     15487     15487     15488     15487     15489     15487     15490
     15490     15491     15490     15492     15490     15493     15493     15494
     15493     15495     15493     15496     15496     15497     15496     15498
     15496     15499     15499     15500     15499     15501     15499     15502
     15502     15503     15502     15504     15502     15505     15453     15454
     15454     15456     15454     15455     15456     15457     15456     15458
     15456     15506     15506     15507     15506     15508     15506     15509
     15509     15510     15509     15511     15509     15512     15512     15513
     15512     15514     15512     15515     15515     15516     15515     15517
     15515     15518     15518     15519     15518     15520     15518     15521
     15521     15522     15521     15523     15521     15524     15524     15525
     15524     15526     15524     15527     15527     15528     15527     15529
     15527     15530     15530     15531     15530     15532     15530     15533
     15533     15534     15533     15535     15533     15536     15536     15537
     15536     15538     15536     15539     15539     15540     15539     15541
     15539     15542     15542     15543     15542     15544     15542     15545
     15545     15546     15545     15547     15545     15548     15549     15551
     15549     15550     15551     15552     15549     15595     15595     15596
     15595     15597     15595     15592     15592     15593     15592     15594
     15549     15553     15553     15554     15553     15555     15553     15556
     15556     15587     15587     15592     15587     15588     15588     15589
     15588     15590     15588     15591     15556     15557     15557     15558
     15557     15559     15559     15560     15559     15561     15559     15562
     15562     15563     15562     15585     15585     15586     15585     15587
     15562     15564     15564     15565     15564     15574     15574     15579
     15579     15580     15579     15581     15579     15582     15582     15583
     15582     15584     15582     15585     15574     15575     15575     15576
     15575     15577     15575     15578     15564     15566     15566     15567
     15566     15568     15566     15569     15569     15570     15569     15571
     15569     15572     15572     15573     15572     15574     15572     15598
     15598     15599     15598     15600     15600     15601     15600     15602
     15600     15603     15598     15604     15604     15605     15604     15606
     15604     15607     15607     15608     15607     15609     15607     15610
     15610     15611     15610     15612     15610     15613     15613     15614
     15613     15615     15615     15616     15615     15617     15615     15618
     15613     15619     15619     15620     15619     15621     15619     15622
     15623     15625     15623     15624     15625     15626     15623     15669
     15669     15670     15669     15671     15669     15666     15666     15667
     15666     15668     15623     15627     15627     15628     15627     15629
     15627     15630     15630     15661     15661     15666     15661     15662
     15662     15663     15662     15664     15662     15665     15630     15631
     15631     15632     15631     15633     15633     15634     15633     15635
     15633     15636     15636     15637     15636     15659     15659     15660
     15659     15661     15636     15638     15638     15639     15638     15648
     15648     15653     15653     15654     15653     15655     15653     15656
     15656     15657     15656     15658     15656     15659     15648     15649
     15649     15650     15649     15651     15649     15652     15638     15640
     15640     15641     15640     15642     15640     15643     15643     15644
     15643     15645     15643     15646     15646     15647     15646     15648
     15646     15672     15672     15673     15672     15674     15674     15675
     15674     15676     15674     15677     15672     15678     15678     15679
     15678     15680     15678     15681     15681     15682     15681     15683
     15681     15684     15684     15685     15684     15686     15684     15687
     15687     15688     15687     15689     15689     15690     15689     15691
     15689     15692     15687     15693     15693     15694     15693     15695
     15693     15696     15697     15699     15697     15698     15699     15700
     15697     15743     15743     15744     15743     15745     15743     15740
     15740     15741     15740     15742     15697     15701     15701     15702
     15701     15703     15701     15704     15704     15735     15735     15740
     15735     15736     15736     15737     15736     15738     15736     15739
     15704     15705     15705     15706     15705     15707     15707     15708
     15707     15709     15707     15710     15710     15711     15710     15733
     15733     15734     15733     15735     15710     15712     15712     15713
     15712     15722     15722     15727     15727     15728     15727     15729
     15727     15730     15730     15731     15730     15732     15730     15733
     15722     15723     15723     15724     15723     15725     15723     15726
     15712     15714     15714     15715     15714     15716     15714     15717
     15717     15718     15717     15719     15717     15720     15720     15721
     15720     15722     15720     15746     15746     15747     15746     15748
     15748     15749     15748     15750     15748     15751     15746     15752
     15752     15753     15752     15754     15752     15755     15755     15756
     15755     15757     15755     15758     15758     15759     15758     15760
     15758     15761     15761     15762     15761     15763     15763     15764
     15763     15765     15763     15766     15761     15767     15767     15768
     15767     15769     15767     15770     15771     15772     15771     15773
     15771     15774     15771     15775     15775     15776     15775     15777
     15775     15778     15778     15779     15778     15780     15778     15784
     15786     15785     15784     15781     15781     15785     15781     15782
     15781     15783     15786     15787     15786     15788     15786     15789
     15789     15790     15789     15797     15789     15791     15797     15798
     15797     15799     15797     15800     15791     15792     15792     15794
     15792     15793     15794     15795     15794     15796     15794     15806
     15806     15807     15806     15808     15806     15809     15809     15810
     15809     15811     15809     15812     15812     15813     15812     15814
     15812     15815     15815     15816     15815     15817     15815     15818
     15818     15819     15818     15820     15818     15821     15821     15822
     15821     15823     15821     15824     15824     15825     15824     15826
     15826     15827     15826     15828     15828     15829     15828     15830
     15828     15831     15831     15832     15831     15833     15831     15834
     15834     15835     15834     15836     15834     15837     15837     15838
     15837     15839     15837     15840     15840     15841     15840     15842
     15840     15843     15843     15844     15843     15845     15843     15846
     15846     15847     15846     15848     15846     15849     15849     15850
     15849     15851     15849     15852     15800     15801     15801     15803
     15801     15802     15803     15804     15803     15805     15803     15853
     15853     15854     15853     15855     15853     15856     15856     15857
     15856     15858     15856     15859     15859     15860     15859     15861
     15859     15862     15862     15863     15862     15864     15862     15865
     15865     15866     15865     15867     15865     15868     15868     15869
     15868     15870     15868     15871     15871     15872     15871     15873
     15871     15874     15874     15875     15874     15876     15874     15877
     15877     15878     15877     15879     15877     15880     15880     15881
     15880     15882     15880     15883     15883     15884     15883     15885
     15883     15886     15886     15887     15886     15888     15886     15889
     15889     15890     15889     15891     15889     15892     15892     15893
     15892     15894     15892     15895     15895     15896     15895     15897
     15895     15898     15898     15899     15898     15900     15898     15901
     15977     15978     15977     15979     15977     15980     15977     15974
     15974     15975     15974     15976     15974     15971     15971     15972
     15971     15973     15971     15968     15968     15969     15968     15970
     15968     15965     15965     15966     15965     15967     15965     15962
     15962     15963     15962     15964     15962     15959     15959     15960
     15959     15961     15959     15956     15956     15957     15956     15958
     15956     15953     15953     15954     15953     15955     15953     15950
     15950     15951     15950     15952     15950     15947     15947     15948
     15947     15949     15947     15944     15944     15945     15944     15946
     15944     15941     15941     15942     15941     15943     15941     15939
     15939     15940     15937     15938     15937     15933     15933     15934
     15933     15935     15935     15936     15933     15931     15931     15932
     15931     15926     15926     15927     15926     15928     15926     15924
     15924     15921     15925     15921     15922     15921     15923     15921
     15925     15918     15918     15919     15918     15920     15918     15915
     15915     15916     15915     15917     15915     15902     15902     15911
     15902     15907     15902     15903     15911     15912     15911     15913
     15911     15914     15907     15908     15907     15909     15907     15910
     15903     15904     15903     15905     15903     15906     15931     15929
     15929     15930     15929     15981     15981     15983     15983     15984
     15983     15985     15983     15986     15986     15987     15986     15988
     15986     15989     15989     15990     15989     15991     15989     15992
     15992     15993     15992     15994     15992     15995     15995     15996
     15995     15997     15995     15998     15998     15999     15998     16000
     15998     16001     16001     16002     16001     16003     16001     16004
     16004     16005     16006     16007     16006     16008     16008     16009
     16008     16010     16008     16011     16011     16012     16011     16013
     16011     16014     16014     16015     16014     16016     16014     16017
     16017     16018     16017     16019     16017     16020     16020     16021
     16020     16022     16020     16023     16023     16024     16023     16025
     16023     16026     16026     16027     16026     16028     16026     16029
     16029     16030     16029     16031     16029     16032     15937     15939
     16004     16006     15981     15982     16033     16035     16033     16034
     16035     16036     16033     16079     16079     16080     16079     16081
     16079     16076     16076     16077     16076     16078     16033     16037
     16037     16038     16037     16039     16037     16040     16040     16071
     16071     16076     16071     16072     16072     16073     16072     16074
     16072     16075     16040     16041     16041     16042     16041     16043
     16043     16044     16043     16045     16043     16046     16046     16047
     16046     16069     16069     16070     16069     16071     16046     16048
     16048     16049     16048     16058     16058     16063     16063     16064
     16063     16065     16063     16066     16066     16067     16066     16068
     16066     16069     16058     16059     16059     16060     16059     16061
     16059     16062     16048     16050     16050     16051     16050     16052
     16050     16053     16053     16054     16053     16055     16053     16056
     16056     16057     16056     16058     16056     16082     16082     16083
     16082     16084     16084     16085     16084     16086     16084     16087
     16082     16088     16088     16089     16088     16090     16088     16091
     16091     16092     16091     16093     16091     16094     16094     16095
     16094     16096     16094     16097     16097     16098     16097     16099
     16099     16100     16099     16101     16099     16102     16097     16103
     16103     16104     16103     16105     16103     16106     16107     16109
     16107     16108     16109     16110     16107     16153     16153     16154
     16153     16155     16153     16150     16150     16151     16150     16152
     16107     16111     16111     16112     16111     16113     16111     16114
     16114     16145     16145     16150     16145     16146     16146     16147
     16146     16148     16146     16149     16114     16115     16115     16116
     16115     16117     16117     16118     16117     16119     16117     16120
     16120     16121     16120     16143     16143     16144     16143     16145
     16120     16122     16122     16123     16122     16132     16132     16137
     16137     16138     16137     16139     16137     16140     16140     16141
     16140     16142     16140     16143     16132     16133     16133     16134
     16133     16135     16133     16136     16122     16124     16124     16125
     16124     16126     16124     16127     16127     16128     16127     16129
     16127     16130     16130     16131     16130     16132     16130     16156
     16156     16157     16156     16158     16158     16159     16158     16160
     16158     16161     16156     16162     16162     16163     16162     16164
     16162     16165     16165     16166     16165     16167     16165     16168
     16168     16169     16168     16170     16168     16171     16171     16172
     16171     16173     16173     16174     16173     16175     16173     16176
     16171     16177     16177     16178     16177     16179     16177     16180
     16181     16182     16181     16183     16181     16184     16181     16185
     16189     16187     16187     16185     16187     16188     16185     16186
     16185     16190     16198     16197     16190     16191     16190     16192
     16190     16196     16196     16193     16193     16197     16193     16194
     16193     16195     16198     16199     16198     16200     16198     16201
     16201     16202     16201     16209     16201     16203     16209     16210
     16209     16211     16209     16212     16203     16204     16204     16206
     16204     16205     16206     16207     16206     16208     16206     16218
     16218     16219     16218     16220     16218     16221     16221     16222
     16221     16223     16221     16224     16224     16225     16224     16226
     16226     16227     16226     16228     16228     16229     16228     16230
     16228     16231     16231     16232     16231     16233     16233     16234
     16233     16235     16235     16236     16235     16237     16235     16238
     16238     16239     16238     16240     16240     16241     16240     16242
     16242     16243     16242     16244     16242     16245     16245     16246
     16245     16247     16247     16248     16247     16249     16249     16250
     16249     16251     16249     16252     16252     16253     16252     16254
     16252     16255     16255     16256     16255     16257     16255     16258
     16258     16259     16258     16260     16258     16261     16261     16262
     16261     16263     16261     16264     16212     16213     16213     16215
     16213     16214     16215     16216     16215     16217     16215     16265
     16265     16266     16265     16267     16265     16268     16268     16269
     16268     16270     16268     16271     16271     16272     16271     16273
     16271     16274     16274     16275     16274     16276     16274     16277
     16277     16278     16277     16279     16277     16280     16280     16281
     16280     16282     16280     16283     16283     16284     16283     16285
     16283     16286     16286     16287     16286     16288     16286     16289
     16289     16290     16289     16291     16289     16292     16292     16293
     16292     16294     16292     16295     16295     16296     16295     16297
     16295     16298     16298     16299     16298     16300     16298     16301
     16301     16302     16301     16303     16301     16304     16304     16305
     16304     16306     16304     16307     16307     16308     16307     16309
     16307     16310     16310     16311     16310     16312     16310     16313
     16389     16390     16389     16391     16389     16392     16389     16386
     16386     16387     16386     16388     16386     16383     16383     16384
     16383     16385     16383     16380     16380     16381     16380     16382
     16380     16377     16377     16378     16377     16379     16377     16374
     16374     16375     16374     16376     16374     16371     16371     16372
     16371     16373     16371     16368     16368     16369     16368     16370
     16368     16365     16365     16366     16365     16367     16365     16362
     16362     16363     16362     16364     16362     16359     16359     16360
     16359     16361     16359     16356     16356     16357     16356     16358
     16356     16353     16353     16354     16353     16355     16353     16351
     16351     16352     16349     16350     16349     16345     16345     16346
     16345     16347     16347     16348     16345     16343     16343     16344
     16343     16338     16338     16339     16338     16340     16338     16336
     16336     16333     16337     16333     16334     16333     16335     16333
     16337     16330     16330     16331     16330     16332     16330     16327
     16327     16328     16327     16329     16327     16314     16314     16323
     16314     16319     16314     16315     16323     16324     16323     16325
     16323     16326     16319     16320     16319     16321     16319     16322
     16315     16316     16315     16317     16315     16318     16343     16341
     16341     16342     16341     16393     16393     16395     16395     16396
     16395     16397     16395     16398     16398     16399     16398     16400
     16398     16401     16401     16402     16401     16403     16401     16404
     16404     16405     16404     16406     16404     16407     16407     16408
     16407     16409     16407     16410     16410     16411     16410     16412
     16410     16413     16413     16414     16413     16415     16413     16416
     16416     16417     16418     16419     16418     16420     16420     16421
     16420     16422     16420     16423     16423     16424     16423     16425
     16423     16426     16426     16427     16426     16428     16426     16429
     16429     16430     16429     16431     16429     16432     16432     16433
     16432     16434     16432     16435     16435     16436     16435     16437
     16435     16438     16438     16439     16438     16440     16438     16441
     16441     16442     16441     16443     16441     16444     16349     16351
     16416     16418     16393     16394     16445     16446     16445     16450
     16445     16454     16446     16447     16446     16448     16446     16449
     16450     16451     16450     16452     16450     16453     16454     16455
     16454     16456     16454     16457     16445     16458     16458     16459
     16458     16460     16458     16461     16461     16462     16461     16463
     16461     16467     16468     16469     16467     16464     16464     16468
     16464     16465     16464     16466     16469     16470     16469     16471
     16469     16472     16472     16473     16472     16480     16472     16474
     16480     16481     16480     16482     16480     16483     16474     16475
     16475     16477     16475     16476     16477     16478     16477     16479
     16477     16489     16489     16490     16489     16491     16489     16492
     16492     16493     16492     16494     16492     16495     16495     16496
     16495     16497     16495     16498     16498     16499     16498     16500
     16498     16501     16501     16502     16501     16503     16501     16504
     16504     16505     16504     16506     16504     16507     16507     16508
     16507     16509     16509     16510     16509     16511     16511     16512
     16511     16513     16511     16514     16514     16515     16514     16516
     16516     16517     16516     16518     16518     16519     16518     16520
     16518     16521     16521     16522     16521     16523     16521     16524
     16524     16525     16524     16526     16524     16527     16527     16528
     16527     16529     16527     16530     16530     16531     16530     16532
     16530     16533     16483     16484     16484     16486     16484     16485
     16486     16487     16486     16488     16486     16534     16534     16535
     16534     16536     16534     16537     16537     16538     16537     16539
     16537     16540     16540     16541     16540     16542     16540     16543
     16543     16544     16543     16545     16543     16546     16546     16547
     16546     16548     16546     16549     16549     16550     16549     16551
     16549     16552     16552     16553     16552     16554     16552     16555
     16555     16556     16555     16557     16555     16558     16558     16559
     16558     16560     16558     16561     16561     16562     16561     16563
     16561     16564     16564     16565     16564     16566     16564     16567
     16567     16568     16567     16569     16567     16570     16570     16571
     16570     16572     16570     16573     16573     16574     16573     16575
     16573     16576     16576     16577     16576     16578     16576     16579
     16579     16580     16579     16581     16579     16582     16583     16585
     16583     16584     16585     16586     16583     16629     16629     16630
     16629     16631     16629     16626     16626     16627     16626     16628
     16583     16587     16587     16588     16587     16589     16587     16590
     16590     16621     16621     16626     16621     16622     16622     16623
     16622     16624     16622     16625     16590     16591     16591     16592
     16591     16593     16593     16594     16593     16595     16593     16596
     16596     16597     16596     16619     16619     16620     16619     16621
     16596     16598     16598     16599     16598     16608     16608     16613
     16613     16614     16613     16615     16613     16616     16616     16617
     16616     16618     16616     16619     16608     16609     16609     16610
     16609     16611     16609     16612     16598     16600     16600     16601
     16600     16602     16600     16603     16603     16604     16603     16605
     16603     16606     16606     16607     16606     16608     16606     16632
     16632     16633     16632     16634     16634     16635     16634     16636
     16634     16637     16632     16638     16638     16639     16638     16640
     16638     16641     16641     16642     16641     16643     16641     16644
     16644     16645     16644     16646     16644     16647     16647     16648
     16647     16649     16649     16650     16649     16651     16649     16652
     16647     16653     16653     16654     16653     16655     16653     16656
     16657     16658     16657     16659     16657     16660     16657     16661
     16661     16662     16661     16663     16661     16664     16664     16665
     16664     16666     16664     16670     16672     16671     16670     16667
     16667     16671     16667     16668     16667     16669     16672     16673
     16672     16674     16672     16675     16675     16676     16675     16683
     16675     16677     16683     16684     16683     16685     16683     16686
     16677     16678     16678     16680     16678     16679     16680     16681
     16680     16682     16680     16692     16692     16693     16692     16694
     16692     16695     16695     16696     16695     16697     16695     16698
     16698     16699     16698     16700     16698     16701     16701     16702
     16701     16703     16701     16704     16704     16705     16704     16706
     16704     16707     16707     16708     16707     16709     16707     16710
     16710     16711     16710     16712     16712     16713     16712     16714
     16714     16715     16714     16716     16714     16717     16717     16718
     16717     16719     16717     16720     16720     16721     16720     16722
     16720     16723     16723     16724     16723     16725     16723     16726
     16726     16727     16726     16728     16726     16729     16729     16730
     16729     16731     16729     16732     16732     16733     16732     16734
     16732     16735     16735     16736     16735     16737     16735     16738
     16686     16687     16687     16689     16687     16688     16689     16690
     16689     16691     16689     16739     16739     16740     16739     16741
     16739     16742     16742     16743     16742     16744     16742     16745
     16745     16746     16745     16747     16745     16748     16748     16749
     16748     16750     16748     16751     16751     16752     16751     16753
     16751     16754     16754     16755     16754     16756     16754     16757
     16757     16758     16757     16759     16757     16760     16760     16761
     16760     16762     16760     16763     16763     16764     16763     16765
     16763     16766     16766     16767     16766     16768     16766     16769
     16769     16770     16769     16771     16769     16772     16772     16773
     16772     16774     16772     16775     16775     16776     16775     16777
     16775     16778     16778     16779     16778     16780     16778     16781
     16781     16782     16781     16783     16781     16784     16784     16785
     16784     16786     16784     16787     16863     16864     16863     16865
     16863     16866     16863     16860     16860     16861     16860     16862
     16860     16857     16857     16858     16857     16859     16857     16854
     16854     16855     16854     16856     16854     16851     16851     16852
     16851     16853     16851     16848     16848     16849     16848     16850
     16848     16845     16845     16846     16845     16847     16845     16842
     16842     16843     16842     16844     16842     16839     16839     16840
     16839     16841     16839     16836     16836     16837     16836     16838
     16836     16833     16833     16834     16833     16835     16833     16830
     16830     16831     16830     16832     16830     16827     16827     16828
     16827     16829     16827     16825     16825     16826     16823     16824
     16823     16819     16819     16820     16819     16821     16821     16822
     16819     16817     16817     16818     16817     16812     16812     16813
     16812     16814     16812     16810     16810     16807     16811     16807
     16808     16807     16809     16807     16811     16804     16804     16805
     16804     16806     16804     16801     16801     16802     16801     16803
     16801     16788     16788     16797     16788     16793     16788     16789
     16797     16798     16797     16799     16797     16800     16793     16794
     16793     16795     16793     16796     16789     16790     16789     16791
     16789     16792     16817     16815     16815     16816     16815     16867
     16867     16869     16869     16870     16869     16871     16869     16872
     16872     16873     16872     16874     16872     16875     16875     16876
     16875     16877     16875     16878     16878     16879     16878     16880
     16878     16881     16881     16882     16881     16883     16881     16884
     16884     16885     16884     16886     16884     16887     16887     16888
     16887     16889     16887     16890     16890     16891     16892     16893
     16892     16894     16894     16895     16894     16896     16894     16897
     16897     16898     16897     16899     16897     16900     16900     16901
     16900     16902     16900     16903     16903     16904     16903     16905
     16903     16906     16906     16907     16906     16908     16906     16909
     16909     16910     16909     16911     16909     16912     16912     16913
     16912     16914     16912     16915     16915     16916     16915     16917
     16915     16918     16823     16825     16890     16892     16867     16868
     16919     16920     16919     16921     16919     16922     16919     16923
     16923     16924     16923     16925     16923     16926     16926     16927
     16926     16928     16926     16932     16934     16933     16932     16929
     16929     16933     16929     16930     16929     16931     16934     16935
     16934     16936     16934     16937     16937     16938     16937     16945
     16937     16939     16945     16946     16945     16947     16945     16948
     16939     16940     16940     16942     16940     16941     16942     16943
     16942     16944     16942     16954     16954     16955     16954     16956
     16954     16957     16957     16958     16957     16959     16957     16960
     16960     16961     16960     16962     16962     16963     16962     16964
     16964     16965     16964     16966     16964     16967     16967     16968
     16967     16969     16969     16970     16969     16971     16971     16972
     16971     16973     16971     16974     16974     16975     16974     16976
     16976     16977     16976     16978     16978     16979     16978     16980
     16978     16981     16981     16982     16981     16983     16983     16984
     16983     16985     16985     16986     16985     16987     16985     16988
     16988     16989     16988     16990     16988     16991     16991     16992
     16991     16993     16991     16994     16994     16995     16994     16996
     16994     16997     16997     16998     16997     16999     16997     17000
     16948     16949     16949     16951     16949     16950     16951     16952
     16951     16953     16951     17001     17001     17002     17001     17003
     17001     17004     17004     17005     17004     17006     17004     17007
     17007     17008     17007     17009     17007     17010     17010     17011
     17010     17012     17010     17013     17013     17014     17013     17015
     17013     17016     17016     17017     17016     17018     17016     17019
     17019     17020     17019     17021     17019     17022     17022     17023
     17022     17024     17022     17025     17025     17026     17025     17027
     17025     17028     17028     17029     17028     17030     17028     17031
     17031     17032     17031     17033     17031     17034     17034     17035
     17034     17036     17034     17037     17037     17038     17037     17039
     17037     17040     17040     17041     17040     17042     17040     17043
     17043     17044     17043     17045     17043     17046     17046     17047
     17046     17048     17046     17049     17050     17051     17050     17052
     17050     17053     17050     17054     17054     17055     17054     17056
     17054     17057     17057     17058     17057     17059     17057     17063
     17065     17064     17063     17060     17060     17064     17060     17061
     17060     17062     17065     17066     17065     17067     17065     17068
     17068     17069     17068     17076     17068     17070     17076     17077
     17076     17078     17076     17079     17070     17071     17071     17073
     17071     17072     17073     17074     17073     17075     17073     17085
     17085     17086     17085     17087     17085     17088     17088     17089
     17088     17090     17088     17091     17091     17092     17091     17093
     17093     17094     17093     17095     17095     17096     17095     17097
     17095     17098     17098     17099     17098     17100     17100     17101
     17100     17102     17102     17103     17102     17104     17102     17105
     17105     17106     17105     17107     17107     17108     17107     17109
     17109     17110     17109     17111     17109     17112     17112     17113
     17112     17114     17114     17115     17114     17116     17116     17117
     17116     17118     17116     17119     17119     17120     17119     17121
     17119     17122     17122     17123     17122     17124     17122     17125
     17125     17126     17125     17127     17125     17128     17128     17129
     17128     17130     17128     17131     17079     17080     17080     17082
     17080     17081     17082     17083     17082     17084     17082     17132
     17132     17133     17132     17134     17132     17135     17135     17136
     17135     17137     17135     17138     17138     17139     17138     17140
     17138     17141     17141     17142     17141     17143     17141     17144
     17144     17145     17144     17146     17144     17147     17147     17148
     17147     17149     17147     17150     17150     17151     17150     17152
     17150     17153     17153     17154     17153     17155     17153     17156
     17156     17157     17156     17158     17156     17159     17159     17160
     17159     17161     17159     17162     17162     17163     17162     17164
     17162     17165     17165     17166     17165     17167     17165     17168
     17168     17169     17168     17170     17168     17171     17171     17172
     17171     17173     17171     17174     17174     17175     17174     17176
     17174     17177     17177     17178     17177     17179     17177     17180
     17181     17182     17181     17183     17181     17184     17181     17185
     17185     17186     17185     17187     17185     17188     17188     17189
     17188     17190     17188     17194     17196     17195     17194     17191
     17191     17195     17191     17192     17191     17193     17196     17197
     17196     17198     17196     17199     17199     17200     17199     17207
     17199     17201     17207     17208     17207     17209     17207     17210
     17201     17202     17202     17204     17202     17203     17204     17205
     17204     17206     17204     17216     17216     17217     17216     17218
     17216     17219     17219     17220     17219     17221     17219     17222
     17222     17223     17222     17224     17222     17225     17225     17226
     17225     17227     17225     17228     17228     17229     17228     17230
     17228     17231     17231     17232     17231     17233     17231     17234
     17234     17235     17234     17236     17236     17237     17236     17238
     17238     17239     17238     17240     17238     17241     17241     17242
     17241     17243     17241     17244     17244     17245     17244     17246
     17244     17247     17247     17248     17247     17249     17247     17250
     17250     17251     17250     17252     17250     17253     17253     17254
     17253     17255     17253     17256     17256     17257     17256     17258
     17256     17259     17259     17260     17259     17261     17259     17262
     17210     17211     17211     17213     17211     17212     17213     17214
     17213     17215     17213     17263     17263     17264     17263     17265
     17263     17266     17266     17267     17266     17268     17266     17269
     17269     17270     17269     17271     17269     17272     17272     17273
     17272     17274     17272     17275     17275     17276     17275     17277
     17275     17278     17278     17279     17278     17280     17278     17281
     17281     17282     17281     17283     17281     17284     17284     17285
     17284     17286     17284     17287     17287     17288     17287     17289
     17287     17290     17290     17291     17290     17292     17290     17293
     17293     17294     17293     17295     17293     17296     17296     17297
     17296     17298     17296     17299     17299     17300     17299     17301
     17299     17302     17302     17303     17302     17304     17302     17305
     17305     17306     17305     17307     17305     17308     17308     17309
     17308     17310     17308     17311     17332     17333     17332     17328
     17332     17312     17332     17337     17312     17313     17312     17314
     17314     17315     17312     17316     17316     17317     17316     17318
     17318     17319     17316     17320     17320     17321     17320     17322
     17322     17323     17320     17324     17324     17325     17324     17328
     17328     17329     17328     17330     17330     17331     17324     17326
     17326     17327     17337     17334     17334     17338     17334     17335
     17334     17336     17338     17339     17339     17340     17339     17341
     17339     17342     17342     17343     17342     17350     17342     17344
     17350     17351     17350     17352     17350     17353     17344     17345
     17345     17347     17345     17346     17347     17348     17347     17349
     17347     17359     17359     17360     17359     17361     17359     17362
     17362     17363     17362     17364     17362     17365     17365     17366
     17365     17367     17367     17368     17367     17369     17369     17370
     17369     17371     17369     17372     17372     17373     17372     17374
     17374     17375     17374     17376     17376     17377     17376     17378
     17376     17379     17379     17380     17379     17381     17381     17382
     17381     17383     17383     17384     17383     17385     17383     17386
     17386     17387     17386     17388     17388     17389     17388     17390
     17390     17391     17390     17392     17390     17393     17393     17394
     17393     17395     17393     17396     17396     17397     17396     17398
     17396     17399     17399     17400     17399     17401     17399     17402
     17402     17403     17402     17404     17402     17405     17353     17354
     17354     17356     17354     17355     17356     17357     17356     17358
     17356     17406     17406     17407     17406     17408     17406     17409
     17409     17410     17409     17411     17409     17412     17412     17413
     17412     17414     17412     17415     17415     17416     17415     17417
     17415     17418     17418     17419     17418     17420     17418     17421
     17421     17422     17421     17423     17421     17424     17424     17425
     17424     17426     17424     17427     17427     17428     17427     17429
     17427     17430     17430     17431     17430     17432     17430     17433
     17433     17434     17433     17435     17433     17436     17436     17437
     17436     17438     17436     17439     17439     17440     17439     17441
     17439     17442     17442     17443     17442     17444     17442     17445
     17445     17446     17445     17447     17445     17448     17448     17449
     17448     17450     17448     17451     17451     17452     17451     17453
     17451     17454     17530     17531     17530     17532     17530     17533
     17530     17527     17527     17528     17527     17529     17527     17524
     17524     17525     17524     17526     17524     17521     17521     17522
     17521     17523     17521     17518     17518     17519     17518     17520
     17518     17515     17515     17516     17515     17517     17515     17512
     17512     17513     17512     17514     17512     17509     17509     17510
     17509     17511     17509     17506     17506     17507     17506     17508
     17506     17503     17503     17504     17503     17505     17503     17500
     17500     17501     17500     17502     17500     17497     17497     17498
     17497     17499     17497     17494     17494     17495     17494     17496
     17494     17492     17492     17493     17490     17491     17490     17486
     17486     17487     17486     17488     17488     17489     17486     17484
     17484     17485     17484     17479     17479     17480     17479     17481
     17479     17477     17477     17474     17478     17474     17475     17474
     17476     17474     17478     17471     17471     17472     17471     17473
     17471     17468     17468     17469     17468     17470     17468     17455
     17455     17464     17455     17460     17455     17456     17464     17465
     17464     17466     17464     17467     17460     17461     17460     17462
     17460     17463     17456     17457     17456     17458     17456     17459
     17484     17482     17482     17483     17482     17534     17534     17536
     17536     17537     17536     17538     17536     17539     17539     17540
     17539     17541     17539     17542     17542     17543     17542     17544
     17542     17545     17545     17546     17545     17547     17545     17548
     17548     17549     17548     17550     17548     17551     17551     17552
     17551     17553     17551     17554     17554     17555     17554     17556
     17554     17557     17557     17558     17559     17560     17559     17561
     17561     17562     17561     17563     17561     17564     17564     17565
     17564     17566     17564     17567     17567     17568     17567     17569
     17567     17570     17570     17571     17570     17572     17570     17573
     17573     17574     17573     17575     17573     17576     17576     17577
     17576     17578     17576     17579     17579     17580     17579     17581
     17579     17582     17582     17583     17582     17584     17582     17585
     17490     17492     17557     17559     17534     17535     17586     17588
     17586     17587     17588     17589     17586     17632     17632     17633
     17632     17634     17632     17629     17629     17630     17629     17631
     17586     17590     17590     17591     17590     17592     17590     17593
     17593     17624     17624     17629     17624     17625     17625     17626
     17625     17627     17625     17628     17593     17594     17594     17595
     17594     17596     17596     17597     17596     17598     17596     17599
     17599     17600     17599     17622     17622     17623     17622     17624
     17599     17601     17601     17602     17601     17611     17611     17616
     17616     17617     17616     17618     17616     17619     17619     17620
     17619     17621     17619     17622     17611     17612     17612     17613
     17612     17614     17612     17615     17601     17603     17603     17604
     17603     17605     17603     17606     17606     17607     17606     17608
     17606     17609     17609     17610     17609     17611     17609     17635
     17635     17636     17635     17637     17637     17638     17637     17639
     17637     17640     17635     17641     17641     17642     17641     17643
     17641     17644     17644     17645     17644     17646     17644     17647
     17647     17648     17647     17649     17647     17650     17650     17651
     17650     17652     17652     17653     17652     17654     17652     17655
     17650     17656     17656     17657     17656     17658     17656     17659
     17660     17662     17660     17661     17662     17663     17660     17706
     17706     17707     17706     17708     17706     17703     17703     17704
     17703     17705     17660     17664     17664     17665     17664     17666
     17664     17667     17667     17698     17698     17703     17698     17699
     17699     17700     17699     17701     17699     17702     17667     17668
     17668     17669     17668     17670     17670     17671     17670     17672
     17670     17673     17673     17674     17673     17696     17696     17697
     17696     17698     17673     17675     17675     17676     17675     17685
     17685     17690     17690     17691     17690     17692     17690     17693
     17693     17694     17693     17695     17693     17696     17685     17686
     17686     17687     17686     17688     17686     17689     17675     17677
     17677     17678     17677     17679     17677     17680     17680     17681
     17680     17682     17680     17683     17683     17684     17683     17685
     17683     17709     17709     17710     17709     17711     17711     17712
     17711     17713     17711     17714     17709     17715     17715     17716
     17715     17717     17715     17718     17718     17719     17718     17720
     17718     17721     17721     17722     17721     17723     17721     17724
     17724     17725     17724     17726     17726     17727     17726     17728
     17726     17729     17724     17730     17730     17731     17730     17732
     17730     17733     17734     17736     17734     17735     17736     17737
     17734     17780     17780     17781     17780     17782     17780     17777
     17777     17778     17777     17779     17734     17738     17738     17739
     17738     17740     17738     17741     17741     17772     17772     17777
     17772     17773     17773     17774     17773     17775     17773     17776
     17741     17742     17742     17743     17742     17744     17744     17745
     17744     17746     17744     17747     17747     17748     17747     17770
     17770     17771     17770     17772     17747     17749     17749     17750
     17749     17759     17759     17764     17764     17765     17764     17766
     17764     17767     17767     17768     17767     17769     17767     17770
     17759     17760     17760     17761     17760     17762     17760     17763
     17749     17751     17751     17752     17751     17753     17751     17754
     17754     17755     17754     17756     17754     17757     17757     17758
     17757     17759     17757     17783     17783     17784     17783     17785
     17785     17786     17785     17787     17785     17788     17783     17789
     17789     17790     17789     17791     17789     17792     17792     17793
     17792     17794     17792     17795     17795     17796     17795     17797
     17795     17798     17798     17799     17798     17800     17800     17801
     17800     17802     17800     17803     17798     17804     17804     17805
     17804     17806     17804     17807     17808     17810     17808     17809
     17810     17811     17808     17854     17854     17855     17854     17856
     17854     17851     17851     17852     17851     17853     17808     17812
     17812     17813     17812     17814     17812     17815     17815     17846
     17846     17851     17846     17847     17847     17848     17847     17849
     17847     17850     17815     17816     17816     17817     17816     17818
     17818     17819     17818     17820     17818     17821     17821     17822
     17821     17844     17844     17845     17844     17846     17821     17823
     17823     17824     17823     17833     17833     17838     17838     17839
     17838     17840     17838     17841     17841     17842     17841     17843
     17841     17844     17833     17834     17834     17835     17834     17836
     17834     17837     17823     17825     17825     17826     17825     17827
     17825     17828     17828     17829     17828     17830     17828     17831
     17831     17832     17831     17833     17831     17857     17857     17858
     17857     17859     17859     17860     17859     17861     17859     17862
     17857     17863     17863     17864     17863     17865     17863     17866
     17866     17867     17866     17868     17866     17869     17869     17870
     17869     17871     17869     17872     17872     17873     17872     17874
     17874     17875     17874     17876     17874     17877     17872     17878
     17878     17879     17878     17880     17878     17881     17882     17884
     17882     17883     17884     17885     17882     17928     17928     17929
     17928     17930     17928     17925     17925     17926     17925     17927
     17882     17886     17886     17887     17886     17888     17886     17889
     17889     17920     17920     17925     17920     17921     17921     17922
     17921     17923     17921     17924     17889     17890     17890     17891
     17890     17892     17892     17893     17892     17894     17892     17895
     17895     17896     17895     17918     17918     17919     17918     17920
     17895     17897     17897     17898     17897     17907     17907     17912
     17912     17913     17912     17914     17912     17915     17915     17916
     17915     17917     17915     17918     17907     17908     17908     17909
     17908     17910     17908     17911     17897     17899     17899     17900
     17899     17901     17899     17902     17902     17903     17902     17904
     17902     17905     17905     17906     17905     17907     17905     17931
     17931     17932     17931     17933     17933     17934     17933     17935
     17933     17936     17931     17937     17937     17938     17937     17939
     17937     17940     17940     17941     17940     17942     17940     17943
     17943     17944     17943     17945     17943     17946     17946     17947
     17946     17948     17948     17949     17948     17950     17948     17951
     17946     17952     17952     17953     17952     17954     17952     17955
     17956     17958     17956     17957     17958     17959     17956     18002
     18002     18003     18002     18004     18002     17999     17999     18000
     17999     18001     17956     17960     17960     17961     17960     17962
     17960     17963     17963     17994     17994     17999     17994     17995
     17995     17996     17995     17997     17995     17998     17963     17964
     17964     17965     17964     17966     17966     17967     17966     17968
     17966     17969     17969     17970     17969     17992     17992     17993
     17992     17994     17969     17971     17971     17972     17971     17981
     17981     17986     17986     17987     17986     17988     17986     17989
     17989     17990     17989     17991     17989     17992     17981     17982
     17982     17983     17982     17984     17982     17985     17971     17973
     17973     17974     17973     17975     17973     17976     17976     17977
     17976     17978     17976     17979     17979     17980     17979     17981
     17979     18005     18005     18006     18005     18007     18007     18008
     18007     18009     18007     18010     18005     18011     18011     18012
     18011     18013     18011     18014     18014     18015     18014     18016
     18014     18017     18017     18018     18017     18019     18017     18020
     18020     18021     18020     18022     18022     18023     18022     18024
     18022     18025     18020     18026     18026     18027     18026     18028
     18026     18029     18105     18106     18105     18107     18105     18108
     18105     18102     18102     18103     18102     18104     18102     18099
     18099     18100     18099     18101     18099     18096     18096     18097
     18096     18098     18096     18093     18093     18094     18093     18095
     18093     18090     18090     18091     18090     18092     18090     18087
     18087     18088     18087     18089     18087     18084     18084     18085
     18084     18086     18084     18081     18081     18082     18081     18083
     18081     18078     18078     18079     18078     18080     18078     18075
     18075     18076     18075     18077     18075     18072     18072     18073
     18072     18074     18072     18069     18069     18070     18069     18071
     18069     18067     18067     18068     18065     18066     18065     18061
     18061     18062     18061     18063     18063     18064     18061     18059
     18059     18060     18059     18054     18054     18055     18054     18056
     18054     18052     18052     18049     18053     18049     18050     18049
     18051     18049     18053     18046     18046     18047     18046     18048
     18046     18043     18043     18044     18043     18045     18043     18030
     18030     18039     18030     18035     18030     18031     18039     18040
     18039     18041     18039     18042     18035     18036     18035     18037
     18035     18038     18031     18032     18031     18033     18031     18034
     18059     18057     18057     18058     18057     18109     18109     18111
     18111     18112     18111     18113     18111     18114     18114     18115
     18114     18116     18114     18117     18117     18118     18117     18119
     18117     18120     18120     18121     18120     18122     18120     18123
     18123     18124     18123     18125     18123     18126     18126     18127
     18126     18128     18126     18129     18129     18130     18129     18131
     18129     18132     18132     18133     18134     18135     18134     18136
     18136     18137     18136     18138     18136     18139     18139     18140
     18139     18141     18139     18142     18142     18143     18142     18144
     18142     18145     18145     18146     18145     18147     18145     18148
     18148     18149     18148     18150     18148     18151     18151     18152
     18151     18153     18151     18154     18154     18155     18154     18156
     18154     18157     18157     18158     18157     18159     18157     18160
     18065     18067     18132     18134     18109     18110     18161     18165
     18161     18169     18161     18173     18165     18166     18165     18167
     18165     18168     18169     18170     18169     18171     18169     18172
     18173     18174     18173     18175     18173     18176     18161     18162
     18162     18163     18162     18164     18162     18177     18177     18178
     18177     18179     18177     18183     18184     18185     18183     18180
     18180     18184     18180     18181     18180     18182     18185     18186
     18185     18187     18185     18188     18188     18189     18188     18196
     18188     18190     18196     18197     18196     18198     18196     18199
     18190     18191     18191     18193     18191     18192     18193     18194
     18193     18195     18193     18205     18205     18206     18205     18207
     18205     18208     18208     18209     18208     18210     18208     18211
     18211     18212     18211     18213     18213     18214     18213     18215
     18215     18216     18215     18217     18215     18218     18218     18219
     18218     18220     18220     18221     18220     18222     18222     18223
     18222     18224     18222     18225     18225     18226     18225     18227
     18227     18228     18227     18229     18229     18230     18229     18231
     18229     18232     18232     18233     18232     18234     18234     18235
     18234     18236     18236     18237     18236     18238     18236     18239
     18239     18240     18239     18241     18239     18242     18242     18243
     18242     18244     18242     18245     18245     18246     18245     18247
     18245     18248     18248     18249     18248     18250     18248     18251
     18199     18200     18200     18202     18200     18201     18202     18203
     18202     18204     18202     18252     18252     18253     18252     18254
     18252     18255     18255     18256     18255     18257     18255     18258
     18258     18259     18258     18260     18258     18261     18261     18262
     18261     18263     18261     18264     18264     18265     18264     18266
     18264     18267     18267     18268     18267     18269     18267     18270
     18270     18271     18270     18272     18270     18273     18273     18274
     18273     18275     18273     18276     18276     18277     18276     18278
     18276     18279     18279     18280     18279     18281     18279     18282
     18282     18283     18282     18284     18282     18285     18285     18286
     18285     18287     18285     18288     18288     18289     18288     18290
     18288     18291     18291     18292     18291     18293     18291     18294
     18294     18295     18294     18296     18294     18297     18297     18298
     18297     18299     18297     18300     18301     18302     18301     18303
     18301     18304     18301     18305     18305     18306     18305     18307
     18305     18308     18308     18309     18308     18310     18308     18314
     18316     18315     18314     18311     18311     18315     18311     18312
     18311     18313     18316     18317     18316     18318     18316     18319
     18319     18320     18319     18327     18319     18321     18327     18328
     18327     18329     18327     18330     18321     18322     18322     18324
     18322     18323     18324     18325     18324     18326     18324     18336
     18336     18337     18336     18338     18336     18339     18339     18340
     18339     18341     18339     18342     18342     18343     18342     18344
     18344     18345     18344     18346     18346     18347     18346     18348
     18346     18349     18349     18350     18349     18351     18351     18352
     18351     18353     18353     18354     18353     18355     18353     18356
     18356     18357     18356     18358     18358     18359     18358     18360
     18360     18361     18360     18362     18360     18363     18363     18364
     18363     18365     18365     18366     18365     18367     18367     18368
     18367     18369     18367     18370     18370     18371     18370     18372
     18370     18373     18373     18374     18373     18375     18373     18376
     18376     18377     18376     18378     18376     18379     18379     18380
     18379     18381     18379     18382     18330     18331     18331     18333
     18331     18332     18333     18334     18333     18335     18333     18383
     18383     18384     18383     18385     18383     18386     18386     18387
     18386     18388     18386     18389     18389     18390     18389     18391
     18389     18392     18392     18393     18392     18394     18392     18395
     18395     18396     18395     18397     18395     18398     18398     18399
     18398     18400     18398     18401     18401     18402     18401     18403
     18401     18404     18404     18405     18404     18406     18404     18407
     18407     18408     18407     18409     18407     18410     18410     18411
     18410     18412     18410     18413     18413     18414     18413     18415
     18413     18416     18416     18417     18416     18418     18416     18419
     18419     18420     18419     18421     18419     18422     18422     18423
     18422     18424     18422     18425     18425     18426     18425     18427
     18425     18428     18428     18429     18428     18430     18428     18431
     18432     18434     18432     18433     18434     18435     18432     18478
     18478     18479     18478     18480     18478     18475     18475     18476
     18475     18477     18432     18436     18436     18437     18436     18438
     18436     18439     18439     18470     18470     18475     18470     18471
     18471     18472     18471     18473     18471     18474     18439     18440
     18440     18441     18440     18442     18442     18443     18442     18444
     18442     18445     18445     18446     18445     18468     18468     18469
     18468     18470     18445     18447     18447     18448     18447     18457
     18457     18462     18462     18463     18462     18464     18462     18465
     18465     18466     18465     18467     18465     18468     18457     18458
     18458     18459     18458     18460     18458     18461     18447     18449
     18449     18450     18449     18451     18449     18452     18452     18453
     18452     18454     18452     18455     18455     18456     18455     18457
     18455     18481     18481     18482     18481     18483     18483     18484
     18483     18485     18483     18486     18481     18487     18487     18488
     18487     18489     18487     18490     18490     18491     18490     18492
     18490     18493     18493     18494     18493     18495     18493     18496
     18496     18497     18496     18498     18498     18499     18498     18500
     18498     18501     18496     18502     18502     18503     18502     18504
     18502     18505     18506     18507     18506     18508     18506     18509
     18506     18510     18510     18511     18510     18512     18510     18513
     18513     18514     18513     18515     18513     18519     18521     18520
     18519     18516     18516     18520     18516     18517     18516     18518
     18521     18522     18521     18523     18521     18524     18524     18525
     18524     18532     18524     18526     18532     18533     18532     18534
     18532     18535     18526     18527     18527     18529     18527     18528
     18529     18530     18529     18531     18529     18541     18541     18542
     18541     18543     18541     18544     18544     18545     18544     18546
     18544     18547     18547     18548     18547     18549     18549     18550
     18549     18551     18551     18552     18551     18553     18551     18554
     18554     18555     18554     18556     18556     18557     18556     18558
     18558     18559     18558     18560     18558     18561     18561     18562
     18561     18563     18563     18564     18563     18565     18565     18566
     18565     18567     18565     18568     18568     18569     18568     18570
     18570     18571     18570     18572     18572     18573     18572     18574
     18572     18575     18575     18576     18575     18577     18575     18578
     18578     18579     18578     18580     18578     18581     18581     18582
     18581     18583     18581     18584     18584     18585     18584     18586
     18584     18587     18535     18536     18536     18538     18536     18537
     18538     18539     18538     18540     18538     18588     18588     18589
     18588     18590     18588     18591     18591     18592     18591     18593
     18591     18594     18594     18595     18594     18596     18594     18597
     18597     18598     18597     18599     18597     18600     18600     18601
     18600     18602     18600     18603     18603     18604     18603     18605
     18603     18606     18606     18607     18606     18608     18606     18609
     18609     18610     18609     18611     18609     18612     18612     18613
     18612     18614     18612     18615     18615     18616     18615     18617
     18615     18618     18618     18619     18618     18620     18618     18621
     18621     18622     18621     18623     18621     18624     18624     18625
     18624     18626     18624     18627     18627     18628     18627     18629
     18627     18630     18630     18631     18630     18632     18630     18633
     18633     18634     18633     18635     18633     18636     18637     18639
     18637     18638     18639     18640     18637     18683     18683     18684
     18683     18685     18683     18680     18680     18681     18680     18682
     18637     18641     18641     18642     18641     18643     18641     18644
     18644     18675     18675     18680     18675     18676     18676     18677
     18676     18678     18676     18679     18644     18645     18645     18646
     18645     18647     18647     18648     18647     18649     18647     18650
     18650     18651     18650     18673     18673     18674     18673     18675
     18650     18652     18652     18653     18652     18662     18662     18667
     18667     18668     18667     18669     18667     18670     18670     18671
     18670     18672     18670     18673     18662     18663     18663     18664
     18663     18665     18663     18666     18652     18654     18654     18655
     18654     18656     18654     18657     18657     18658     18657     18659
     18657     18660     18660     18661     18660     18662     18660     18686
     18686     18687     18686     18688     18688     18689     18688     18690
     18688     18691     18686     18692     18692     18693     18692     18694
     18692     18695     18695     18696     18695     18697     18695     18698
     18698     18699     18698     18700     18698     18701     18701     18702
     18701     18703     18703     18704     18703     18705     18703     18706
     18701     18707     18707     18708     18707     18709     18707     18710
     18786     18787     18786     18788     18786     18789     18786     18783
     18783     18784     18783     18785     18783     18780     18780     18781
     18780     18782     18780     18777     18777     18778     18777     18779
     18777     18774     18774     18775     18774     18776     18774     18771
     18771     18772     18771     18773     18771     18768     18768     18769
     18768     18770     18768     18765     18765     18766     18765     18767
     18765     18762     18762     18763     18762     18764     18762     18759
     18759     18760     18759     18761     18759     18756     18756     18757
     18756     18758     18756     18753     18753     18754     18753     18755
     18753     18750     18750     18751     18750     18752     18750     18748
     18748     18749     18746     18747     18746     18742     18742     18743
     18742     18744     18744     18745     18742     18740     18740     18741
     18740     18735     18735     18736     18735     18737     18735     18733
     18733     18730     18734     18730     18731     18730     18732     18730
     18734     18727     18727     18728     18727     18729     18727     18724
     18724     18725     18724     18726     18724     18711     18711     18720
     18711     18716     18711     18712     18720     18721     18720     18722
     18720     18723     18716     18717     18716     18718     18716     18719
     18712     18713     18712     18714     18712     18715     18740     18738
     18738     18739     18738     18790     18790     18792     18792     18793
     18792     18794     18792     18795     18795     18796     18795     18797
     18795     18798     18798     18799     18798     18800     18798     18801
     18801     18802     18801     18803     18801     18804     18804     18805
     18804     18806     18804     18807     18807     18808     18807     18809
     18807     18810     18810     18811     18810     18812     18810     18813
     18813     18814     18815     18816     18815     18817     18817     18818
     18817     18819     18817     18820     18820     18821     18820     18822
     18820     18823     18823     18824     18823     18825     18823     18826
     18826     18827     18826     18828     18826     18829     18829     18830
     18829     18831     18829     18832     18832     18833     18832     18834
     18832     18835     18835     18836     18835     18837     18835     18838
     18838     18839     18838     18840     18838     18841     18746     18748
     18813     18815     18790     18791     18842     18843     18842     18847
     18842     18851     18843     18844     18843     18845     18843     18846
     18847     18848     18847     18849     18847     18850     18851     18852
     18851     18853     18851     18854     18842     18855     18855     18856
     18855     18857     18855     18858     18858     18859     18858     18860
     18858     18864     18865     18866     18864     18861     18861     18865
     18861     18862     18861     18863     18866     18867     18866     18868
     18866     18869     18869     18870     18869     18877     18869     18871
     18877     18878     18877     18879     18877     18880     18871     18872
     18872     18874     18872     18873     18874     18875     18874     18876
     18874     18886     18886     18887     18886     18888     18886     18889
     18889     18890     18889     18891     18889     18892     18892     18893
     18892     18894     18892     18895     18895     18896     18895     18897
     18895     18898     18898     18899     18898     18900     18898     18901
     18901     18902     18901     18903     18901     18904     18904     18905
     18904     18906     18906     18907     18906     18908     18908     18909
     18908     18910     18908     18911     18911     18912     18911     18913
     18913     18914     18913     18915     18915     18916     18915     18917
     18915     18918     18918     18919     18918     18920     18918     18921
     18921     18922     18921     18923     18921     18924     18924     18925
     18924     18926     18924     18927     18927     18928     18927     18929
     18927     18930     18880     18881     18881     18883     18881     18882
     18883     18884     18883     18885     18883     18931     18931     18932
     18931     18933     18931     18934     18934     18935     18934     18936
     18934     18937     18937     18938     18937     18939     18937     18940
     18940     18941     18940     18942     18940     18943     18943     18944
     18943     18945     18943     18946     18946     18947     18946     18948
     18946     18949     18949     18950     18949     18951     18949     18952
     18952     18953     18952     18954     18952     18955     18955     18956
     18955     18957     18955     18958     18958     18959     18958     18960
     18958     18961     18961     18962     18961     18963     18961     18964
     18964     18965     18964     18966     18964     18967     18967     18968
     18967     18969     18967     18970     18970     18971     18970     18972
     18970     18973     18973     18974     18973     18975     18973     18976
     18976     18977     18976     18978     18976     18979     18980     18984
     18980     18988     18980     18992     18984     18985     18984     18986
     18984     18987     18988     18989     18988     18990     18988     18991
     18992     18993     18992     18994     18992     18995     18980     18981
     18981     18982     18981     18983     18981     18996     18996     18997
     18996     18998     18996     19002     19003     19004     19002     18999
     18999     19003     18999     19000     18999     19001     19004     19005
     19004     19006     19004     19007     19007     19008     19007     19015
     19007     19009     19015     19016     19015     19017     19015     19018
     19009     19010     19010     19012     19010     19011     19012     19013
     19012     19014     19012     19024     19024     19025     19024     19026
     19024     19027     19027     19028     19027     19029     19027     19030
     19030     19031     19030     19032     19032     19033     19032     19034
     19034     19035     19034     19036     19034     19037     19037     19038
     19037     19039     19039     19040     19039     19041     19041     19042
     19041     19043     19041     19044     19044     19045     19044     19046
     19046     19047     19046     19048     19048     19049     19048     19050
     19048     19051     19051     19052     19051     19053     19053     19054
     19053     19055     19055     19056     19055     19057     19055     19058
     19058     19059     19058     19060     19058     19061     19061     19062
     19061     19063     19061     19064     19064     19065     19064     19066
     19064     19067     19067     19068     19067     19069     19067     19070
     19018     19019     19019     19021     19019     19020     19021     19022
     19021     19023     19021     19071     19071     19072     19071     19073
     19071     19074     19074     19075     19074     19076     19074     19077
     19077     19078     19077     19079     19077     19080     19080     19081
     19080     19082     19080     19083     19083     19084     19083     19085
     19083     19086     19086     19087     19086     19088     19086     19089
     19089     19090     19089     19091     19089     19092     19092     19093
     19092     19094     19092     19095     19095     19096     19095     19097
     19095     19098     19098     19099     19098     19100     19098     19101
     19101     19102     19101     19103     19101     19104     19104     19105
     19104     19106     19104     19107     19107     19108     19107     19109
     19107     19110     19110     19111     19110     19112     19110     19113
     19113     19114     19113     19115     19113     19116     19116     19117
     19116     19118     19116     19119     19120     19121     19120     19122
     19120     19123     19120     19124     19128     19126     19126     19124
     19126     19127     19124     19125     19124     19129     19137     19136
     19129     19130     19129     19131     19129     19135     19135     19132
     19132     19136     19132     19133     19132     19134     19137     19138
     19137     19139     19137     19140     19140     19141     19140     19148
     19140     19142     19148     19149     19148     19150     19148     19151
     19142     19143     19143     19145     19143     19144     19145     19146
     19145     19147     19145     19157     19157     19158     19157     19159
     19157     19160     19160     19161     19160     19162     19160     19163
     19163     19164     19163     19165     19165     19166     19165     19167
     19167     19168     19167     19169     19167     19170     19170     19171
     19170     19172     19172     19173     19172     19174     19174     19175
     19174     19176     19174     19177     19177     19178     19177     19179
     19179     19180     19179     19181     19181     19182     19181     19183
     19181     19184     19184     19185     19184     19186     19186     19187
     19186     19188     19188     19189     19188     19190     19188     19191
     19191     19192     19191     19193     19191     19194     19194     19195
     19194     19196     19194     19197     19197     19198     19197     19199
     19197     19200     19200     19201     19200     19202     19200     19203
     19151     19152     19152     19154     19152     19153     19154     19155
     19154     19156     19154     19204     19204     19205     19204     19206
     19204     19207     19207     19208     19207     19209     19207     19210
     19210     19211     19210     19212     19210     19213     19213     19214
     19213     19215     19213     19216     19216     19217     19216     19218
     19216     19219     19219     19220     19219     19221     19219     19222
     19222     19223     19222     19224     19222     19225     19225     19226
     19225     19227     19225     19228     19228     19229     19228     19230
     19228     19231     19231     19232     19231     19233     19231     19234
     19234     19235     19234     19236     19234     19237     19237     19238
     19237     19239     19237     19240     19240     19241     19240     19242
     19240     19243     19243     19244     19243     19245     19243     19246
     19246     19247     19246     19248     19246     19249     19249     19250
     19249     19251     19249     19252     19253     19255     19253     19254
     19255     19256     19253     19299     19299     19300     19299     19301
     19299     19296     19296     19297     19296     19298     19253     19257
     19257     19258     19257     19259     19257     19260     19260     19291
     19291     19296     19291     19292     19292     19293     19292     19294
     19292     19295     19260     19261     19261     19262     19261     19263
     19263     19264     19263     19265     19263     19266     19266     19267
     19266     19289     19289     19290     19289     19291     19266     19268
     19268     19269     19268     19278     19278     19283     19283     19284
     19283     19285     19283     19286     19286     19287     19286     19288
     19286     19289     19278     19279     19279     19280     19279     19281
     19279     19282     19268     19270     19270     19271     19270     19272
     19270     19273     19273     19274     19273     19275     19273     19276
     19276     19277     19276     19278     19276     19302     19302     19303
     19302     19304     19304     19305     19304     19306     19304     19307
     19302     19308     19308     19309     19308     19310     19308     19311
     19311     19312     19311     19313     19311     19314     19314     19315
     19314     19316     19314     19317     19317     19318     19317     19319
     19319     19320     19319     19321     19319     19322     19317     19323
     19323     19324     19323     19325     19323     19326     19327     19328
     19327     19329     19327     19330     19327     19331     19331     19332
     19331     19333     19331     19334     19334     19335     19334     19336
     19334     19340     19342     19341     19340     19337     19337     19341
     19337     19338     19337     19339     19342     19343     19342     19344
     19342     19345     19345     19346     19345     19353     19345     19347
     19353     19354     19353     19355     19353     19356     19347     19348
     19348     19350     19348     19349     19350     19351     19350     19352
     19350     19362     19362     19363     19362     19364     19362     19365
     19365     19366     19365     19367     19365     19368     19368     19369
     19368     19370     19368     19371     19371     19372     19371     19373
     19371     19374     19374     19375     19374     19376     19374     19377
     19377     19378     19377     19379     19377     19380     19380     19381
     19380     19382     19382     19383     19382     19384     19384     19385
     19384     19386     19384     19387     19387     19388     19387     19389
     19387     19390     19390     19391     19390     19392     19390     19393
     19393     19394     19393     19395     19393     19396     19396     19397
     19396     19398     19396     19399     19399     19400     19399     19401
     19399     19402     19402     19403     19402     19404     19402     19405
     19405     19406     19405     19407     19405     19408     19356     19357
     19357     19359     19357     19358     19359     19360     19359     19361
     19359     19409     19409     19410     19409     19411     19409     19412
     19412     19413     19412     19414     19412     19415     19415     19416
     19415     19417     19415     19418     19418     19419     19418     19420
     19418     19421     19421     19422     19421     19423     19421     19424
     19424     19425     19424     19426     19424     19427     19427     19428
     19427     19429     19427     19430     19430     19431     19430     19432
     19430     19433     19433     19434     19433     19435     19433     19436
     19436     19437     19436     19438     19436     19439     19439     19440
     19439     19441     19439     19442     19442     19443     19442     19444
     19442     19445     19445     19446     19445     19447     19445     19448
     19448     19449     19448     19450     19448     19451     19451     19452
     19451     19453     19451     19454     19454     19455     19454     19456
     19454     19457     19458     19459     19458     19460     19458     19461
     19458     19462     19466     19464     19464     19462     19464     19465
     19462     19463     19462     19467     19475     19474     19467     19468
     19467     19469     19467     19473     19473     19470     19470     19474
     19470     19471     19470     19472     19475     19476     19475     19477
     19475     19478     19478     19479     19478     19486     19478     19480
     19486     19487     19486     19488     19486     19489     19480     19481
     19481     19483     19481     19482     19483     19484     19483     19485
     19483     19495     19495     19496     19495     19497     19495     19498
     19498     19499     19498     19500     19498     19501     19501     19502
     19501     19503     19503     19504     19503     19505     19505     19506
     19505     19507     19505     19508     19508     19509     19508     19510
     19510     19511     19510     19512     19512     19513     19512     19514
     19512     19515     19515     19516     19515     19517     19517     19518
     19517     19519     19519     19520     19519     19521     19519     19522
     19522     19523     19522     19524     19524     19525     19524     19526
     19526     19527     19526     19528     19526     19529     19529     19530
     19529     19531     19529     19532     19532     19533     19532     19534
     19532     19535     19535     19536     19535     19537     19535     19538
     19538     19539     19538     19540     19538     19541     19489     19490
     19490     19492     19490     19491     19492     19493     19492     19494
     19492     19542     19542     19543     19542     19544     19542     19545
     19545     19546     19545     19547     19545     19548     19548     19549
     19548     19550     19548     19551     19551     19552     19551     19553
     19551     19554     19554     19555     19554     19556     19554     19557
     19557     19558     19557     19559     19557     19560     19560     19561
     19560     19562     19560     19563     19563     19564     19563     19565
     19563     19566     19566     19567     19566     19568     19566     19569
     19569     19570     19569     19571     19569     19572     19572     19573
     19572     19574     19572     19575     19575     19576     19575     19577
     19575     19578     19578     19579     19578     19580     19578     19581
     19581     19582     19581     19583     19581     19584     19584     19585
     19584     19586     19584     19587     19587     19588     19587     19589
     19587     19590     19666     19667     19666     19668     19666     19669
     19666     19663     19663     19664     19663     19665     19663     19660
     19660     19661     19660     19662     19660     19657     19657     19658
     19657     19659     19657     19654     19654     19655     19654     19656
     19654     19651     19651     19652     19651     19653     19651     19648
     19648     19649     19648     19650     19648     19645     19645     19646
     19645     19647     19645     19642     19642     19643     19642     19644
     19642     19639     19639     19640     19639     19641     19639     19636
     19636     19637     19636     19638     19636     19633     19633     19634
     19633     19635     19633     19630     19630     19631     19630     19632
     19630     19628     19628     19629     19626     19627     19626     19622
     19622     19623     19622     19624     19624     19625     19622     19620
     19620     19621     19620     19615     19615     19616     19615     19617
     19615     19613     19613     19610     19614     19610     19611     19610
     19612     19610     19614     19607     19607     19608     19607     19609
     19607     19604     19604     19605     19604     19606     19604     19591
     19591     19600     19591     19596     19591     19592     19600     19601
     19600     19602     19600     19603     19596     19597     19596     19598
     19596     19599     19592     19593     19592     19594     19592     19595
     19620     19618     19618     19619     19618     19670     19670     19672
     19672     19673     19672     19674     19672     19675     19675     19676
     19675     19677     19675     19678     19678     19679     19678     19680
     19678     19681     19681     19682     19681     19683     19681     19684
     19684     19685     19684     19686     19684     19687     19687     19688
     19687     19689     19687     19690     19690     19691     19690     19692
     19690     19693     19693     19694     19695     19696     19695     19697
     19697     19698     19697     19699     19697     19700     19700     19701
     19700     19702     19700     19703     19703     19704     19703     19705
     19703     19706     19706     19707     19706     19708     19706     19709
     19709     19710     19709     19711     19709     19712     19712     19713
     19712     19714     19712     19715     19715     19716     19715     19717
     19715     19718     19718     19719     19718     19720     19718     19721
     19626     19628     19693     19695     19670     19671     19722     19724
     19722     19723     19724     19725     19722     19768     19768     19769
     19768     19770     19768     19765     19765     19766     19765     19767
     19722     19726     19726     19727     19726     19728     19726     19729
     19729     19760     19760     19765     19760     19761     19761     19762
     19761     19763     19761     19764     19729     19730     19730     19731
     19730     19732     19732     19733     19732     19734     19732     19735
     19735     19736     19735     19758     19758     19759     19758     19760
     19735     19737     19737     19738     19737     19747     19747     19752
     19752     19753     19752     19754     19752     19755     19755     19756
     19755     19757     19755     19758     19747     19748     19748     19749
     19748     19750     19748     19751     19737     19739     19739     19740
     19739     19741     19739     19742     19742     19743     19742     19744
     19742     19745     19745     19746     19745     19747     19745     19771
     19771     19772     19771     19773     19773     19774     19773     19775
     19773     19776     19771     19777     19777     19778     19777     19779
     19777     19780     19780     19781     19780     19782     19780     19783
     19783     19784     19783     19785     19783     19786     19786     19787
     19786     19788     19788     19789     19788     19790     19788     19791
     19786     19792     19792     19793     19792     19794     19792     19795
     19796     19798     19796     19797     19798     19799     19796     19842
     19842     19843     19842     19844     19842     19839     19839     19840
     19839     19841     19796     19800     19800     19801     19800     19802
     19800     19803     19803     19834     19834     19839     19834     19835
     19835     19836     19835     19837     19835     19838     19803     19804
     19804     19805     19804     19806     19806     19807     19806     19808
     19806     19809     19809     19810     19809     19832     19832     19833
     19832     19834     19809     19811     19811     19812     19811     19821
     19821     19826     19826     19827     19826     19828     19826     19829
     19829     19830     19829     19831     19829     19832     19821     19822
     19822     19823     19822     19824     19822     19825     19811     19813
     19813     19814     19813     19815     19813     19816     19816     19817
     19816     19818     19816     19819     19819     19820     19819     19821
     19819     19845     19845     19846     19845     19847     19847     19848
     19847     19849     19847     19850     19845     19851     19851     19852
     19851     19853     19851     19854     19854     19855     19854     19856
     19854     19857     19857     19858     19857     19859     19857     19860
     19860     19861     19860     19862     19862     19863     19862     19864
     19862     19865     19860     19866     19866     19867     19866     19868
     19866     19869     19870     19874     19870     19878     19870     19882
     19874     19875     19874     19876     19874     19877     19878     19879
     19878     19880     19878     19881     19882     19883     19882     19884
     19882     19885     19870     19871     19871     19872     19871     19873
     19871     19886     19886     19887     19886     19888     19886     19892
     19893     19894     19892     19889     19889     19893     19889     19890
     19889     19891     19894     19895     19894     19896     19894     19897
     19897     19898     19897     19905     19897     19899     19905     19906
     19905     19907     19905     19908     19899     19900     19900     19902
     19900     19901     19902     19903     19902     19904     19902     19914
     19914     19915     19914     19916     19914     19917     19917     19918
     19917     19919     19917     19920     19920     19921     19920     19922
     19922     19923     19922     19924     19924     19925     19924     19926
     19924     19927     19927     19928     19927     19929     19929     19930
     19929     19931     19931     19932     19931     19933     19931     19934
     19934     19935     19934     19936     19936     19937     19936     19938
     19938     19939     19938     19940     19938     19941     19941     19942
     19941     19943     19943     19944     19943     19945     19945     19946
     19945     19947     19945     19948     19948     19949     19948     19950
     19948     19951     19951     19952     19951     19953     19951     19954
     19954     19955     19954     19956     19954     19957     19957     19958
     19957     19959     19957     19960     19908     19909     19909     19911
     19909     19910     19911     19912     19911     19913     19911     19961
     19961     19962     19961     19963     19961     19964     19964     19965
     19964     19966     19964     19967     19967     19968     19967     19969
     19967     19970     19970     19971     19970     19972     19970     19973
     19973     19974     19973     19975     19973     19976     19976     19977
     19976     19978     19976     19979     19979     19980     19979     19981
     19979     19982     19982     19983     19982     19984     19982     19985
     19985     19986     19985     19987     19985     19988     19988     19989
     19988     19990     19988     19991     19991     19992     19991     19993
     19991     19994     19994     19995     19994     19996     19994     19997
     19997     19998     19997     19999     19997     20000     20000     20001
     20000     20002     20000     20003     20003     20004     20003     20005
     20003     20006     20006     20007     20006     20008     20006     20009
     20010     20011     20010     20012     20010     20013     20010     20014
     20014     20015     20014     20016     20014     20017     20017     20018
     20017     20019     20017     20023     20025     20024     20023     20020
     20020     20024     20020     20021     20020     20022     20025     20026
     20025     20027     20025     20028     20028     20029     20028     20036
     20028     20030     20036     20037     20036     20038     20036     20039
     20030     20031     20031     20033     20031     20032     20033     20034
     20033     20035     20033     20045     20045     20046     20045     20047
     20045     20048     20048     20049     20048     20050     20048     20051
     20051     20052     20051     20053     20053     20054     20053     20055
     20055     20056     20055     20057     20055     20058     20058     20059
     20058     20060     20060     20061     20060     20062     20062     20063
     20062     20064     20062     20065     20065     20066     20065     20067
     20067     20068     20067     20069     20069     20070     20069     20071
     20069     20072     20072     20073     20072     20074     20074     20075
     20074     20076     20076     20077     20076     20078     20076     20079
     20079     20080     20079     20081     20079     20082     20082     20083
     20082     20084     20082     20085     20085     20086     20085     20087
     20085     20088     20088     20089     20088     20090     20088     20091
     20039     20040     20040     20042     20040     20041     20042     20043
     20042     20044     20042     20092     20092     20093     20092     20094
     20092     20095     20095     20096     20095     20097     20095     20098
     20098     20099     20098     20100     20098     20101     20101     20102
     20101     20103     20101     20104     20104     20105     20104     20106
     20104     20107     20107     20108     20107     20109     20107     20110
     20110     20111     20110     20112     20110     20113     20113     20114
     20113     20115     20113     20116     20116     20117     20116     20118
     20116     20119     20119     20120     20119     20121     20119     20122
     20122     20123     20122     20124     20122     20125     20125     20126
     20125     20127     20125     20128     20128     20129     20128     20130
     20128     20131     20131     20132     20131     20133     20131     20134
     20134     20135     20134     20136     20134     20137     20137     20138
     20137     20139     20137     20140     20216     20217     20216     20218
     20216     20219     20216     20213     20213     20214     20213     20215
     20213     20210     20210     20211     20210     20212     20210     20207
     20207     20208     20207     20209     20207     20204     20204     20205
     20204     20206     20204     20201     20201     20202     20201     20203
     20201     20198     20198     20199     20198     20200     20198     20195
     20195     20196     20195     20197     20195     20192     20192     20193
     20192     20194     20192     20189     20189     20190     20189     20191
     20189     20186     20186     20187     20186     20188     20186     20183
     20183     20184     20183     20185     20183     20180     20180     20181
     20180     20182     20180     20178     20178     20179     20176     20177
     20176     20172     20172     20173     20172     20174     20174     20175
     20172     20170     20170     20171     20170     20165     20165     20166
     20165     20167     20165     20163     20163     20160     20164     20160
     20161     20160     20162     20160     20164     20157     20157     20158
     20157     20159     20157     20154     20154     20155     20154     20156
     20154     20141     20141     20150     20141     20146     20141     20142
     20150     20151     20150     20152     20150     20153     20146     20147
     20146     20148     20146     20149     20142     20143     20142     20144
     20142     20145     20170     20168     20168     20169     20168     20220
     20220     20222     20222     20223     20222     20224     20222     20225
     20225     20226     20225     20227     20225     20228     20228     20229
     20228     20230     20228     20231     20231     20232     20231     20233
     20231     20234     20234     20235     20234     20236     20234     20237
     20237     20238     20237     20239     20237     20240     20240     20241
     20240     20242     20240     20243     20243     20244     20245     20246
     20245     20247     20247     20248     20247     20249     20247     20250
     20250     20251     20250     20252     20250     20253     20253     20254
     20253     20255     20253     20256     20256     20257     20256     20258
     20256     20259     20259     20260     20259     20261     20259     20262
     20262     20263     20262     20264     20262     20265     20265     20266
     20265     20267     20265     20268     20268     20269     20268     20270
     20268     20271     20176     20178     20243     20245     20220     20221
     20272     20273     20272     20274     20272     20275     20272     20276
     20276     20277     20276     20278     20276     20279     20279     20280
     20279     20281     20279     20285     20287     20286     20285     20282
     20282     20286     20282     20283     20282     20284     20287     20288
     20287     20289     20287     20290     20290     20291     20290     20298
     20290     20292     20298     20299     20298     20300     20298     20301
     20292     20293     20293     20295     20293     20294     20295     20296
     20295     20297     20295     20307     20307     20308     20307     20309
     20307     20310     20310     20311     20310     20312     20310     20313
     20313     20314     20313     20315     20315     20316     20315     20317
     20317     20318     20317     20319     20317     20320     20320     20321
     20320     20322     20322     20323     20322     20324     20324     20325
     20324     20326     20324     20327     20327     20328     20327     20329
     20329     20330     20329     20331     20331     20332     20331     20333
     20331     20334     20334     20335     20334     20336     20336     20337
     20336     20338     20338     20339     20338     20340     20338     20341
     20341     20342     20341     20343     20341     20344     20344     20345
     20344     20346     20344     20347     20347     20348     20347     20349
     20347     20350     20350     20351     20350     20352     20350     20353
     20301     20302     20302     20304     20302     20303     20304     20305
     20304     20306     20304     20354     20354     20355     20354     20356
     20354     20357     20357     20358     20357     20359     20357     20360
     20360     20361     20360     20362     20360     20363     20363     20364
     20363     20365     20363     20366     20366     20367     20366     20368
     20366     20369     20369     20370     20369     20371     20369     20372
     20372     20373     20372     20374     20372     20375     20375     20376
     20375     20377     20375     20378     20378     20379     20378     20380
     20378     20381     20381     20382     20381     20383     20381     20384
     20384     20385     20384     20386     20384     20387     20387     20388
     20387     20389     20387     20390     20390     20391     20390     20392
     20390     20393     20393     20394     20393     20395     20393     20396
     20396     20397     20396     20398     20396     20399     20399     20400
     20399     20401     20399     20402     20478     20479     20478     20480
     20478     20481     20478     20475     20475     20476     20475     20477
     20475     20472     20472     20473     20472     20474     20472     20469
     20469     20470     20469     20471     20469     20466     20466     20467
     20466     20468     20466     20463     20463     20464     20463     20465
     20463     20460     20460     20461     20460     20462     20460     20457
     20457     20458     20457     20459     20457     20454     20454     20455
     20454     20456     20454     20451     20451     20452     20451     20453
     20451     20448     20448     20449     20448     20450     20448     20445
     20445     20446     20445     20447     20445     20442     20442     20443
     20442     20444     20442     20440     20440     20441     20438     20439
     20438     20434     20434     20435     20434     20436     20436     20437
     20434     20432     20432     20433     20432     20427     20427     20428
     20427     20429     20427     20425     20425     20422     20426     20422
     20423     20422     20424     20422     20426     20419     20419     20420
     20419     20421     20419     20416     20416     20417     20416     20418
     20416     20403     20403     20412     20403     20408     20403     20404
     20412     20413     20412     20414     20412     20415     20408     20409
     20408     20410     20408     20411     20404     20405     20404     20406
     20404     20407     20432     20430     20430     20431     20430     20482
     20482     20484     20484     20485     20484     20486     20484     20487
     20487     20488     20487     20489     20487     20490     20490     20491
     20490     20492     20490     20493     20493     20494     20493     20495
     20493     20496     20496     20497     20496     20498     20496     20499
     20499     20500     20499     20501     20499     20502     20502     20503
     20502     20504     20502     20505     20505     20506     20507     20508
     20507     20509     20509     20510     20509     20511     20509     20512
     20512     20513     20512     20514     20512     20515     20515     20516
     20515     20517     20515     20518     20518     20519     20518     20520
     20518     20521     20521     20522     20521     20523     20521     20524
     20524     20525     20524     20526     20524     20527     20527     20528
     20527     20529     20527     20530     20530     20531     20530     20532
     20530     20533     20438     20440     20505     20507     20482     20483
     20534     20536     20534     20535     20536     20537     20534     20580
     20580     20581     20580     20582     20580     20577     20577     20578
     20577     20579     20534     20538     20538     20539     20538     20540
     20538     20541     20541     20572     20572     20577     20572     20573
     20573     20574     20573     20575     20573     20576     20541     20542
     20542     20543     20542     20544     20544     20545     20544     20546
     20544     20547     20547     20548     20547     20570     20570     20571
     20570     20572     20547     20549     20549     20550     20549     20559
     20559     20564     20564     20565     20564     20566     20564     20567
     20567     20568     20567     20569     20567     20570     20559     20560
     20560     20561     20560     20562     20560     20563     20549     20551
     20551     20552     20551     20553     20551     20554     20554     20555
     20554     20556     20554     20557     20557     20558     20557     20559
     20557     20583     20583     20584     20583     20585     20585     20586
     20585     20587     20585     20588     20583     20589     20589     20590
     20589     20591     20589     20592     20592     20593     20592     20594
     20592     20595     20595     20596     20595     20597     20595     20598
     20598     20599     20598     20600     20600     20601     20600     20602
     20600     20603     20598     20604     20604     20605     20604     20606
     20604     20607     20608     20609     20608     20610     20608     20611
     20608     20612     20616     20614     20614     20612     20614     20615
     20612     20613     20612     20617     20625     20624     20617     20618
     20617     20619     20617     20623     20623     20620     20620     20624
     20620     20621     20620     20622     20625     20626     20625     20627
     20625     20628     20628     20629     20628     20636     20628     20630
     20636     20637     20636     20638     20636     20639     20630     20631
     20631     20633     20631     20632     20633     20634     20633     20635
     20633     20645     20645     20646     20645     20647     20645     20648
     20648     20649     20648     20650     20648     20651     20651     20652
     20651     20653     20653     20654     20653     20655     20655     20656
     20655     20657     20655     20658     20658     20659     20658     20660
     20660     20661     20660     20662     20662     20663     20662     20664
     20662     20665     20665     20666     20665     20667     20667     20668
     20667     20669     20669     20670     20669     20671     20669     20672
     20672     20673     20672     20674     20674     20675     20674     20676
     20676     20677     20676     20678     20676     20679     20679     20680
     20679     20681     20679     20682     20682     20683     20682     20684
     20682     20685     20685     20686     20685     20687     20685     20688
     20688     20689     20688     20690     20688     20691     20639     20640
     20640     20642     20640     20641     20642     20643     20642     20644
     20642     20692     20692     20693     20692     20694     20692     20695
     20695     20696     20695     20697     20695     20698     20698     20699
     20698     20700     20698     20701     20701     20702     20701     20703
     20701     20704     20704     20705     20704     20706     20704     20707
     20707     20708     20707     20709     20707     20710     20710     20711
     20710     20712     20710     20713     20713     20714     20713     20715
     20713     20716     20716     20717     20716     20718     20716     20719
     20719     20720     20719     20721     20719     20722     20722     20723
     20722     20724     20722     20725     20725     20726     20725     20727
     20725     20728     20728     20729     20728     20730     20728     20731
     20731     20732     20731     20733     20731     20734     20734     20735
     20734     20736     20734     20737     20737     20738     20737     20739
     20737     20740     20741     20742     20741     20743     20741     20744
     20741     20745     20745     20746     20745     20747     20745     20748
     20748     20749     20748     20750     20748     20754     20756     20755
     20754     20751     20751     20755     20751     20752     20751     20753
     20756     20757     20756     20758     20756     20759     20759     20760
     20759     20767     20759     20761     20767     20768     20767     20769
     20767     20770     20761     20762     20762     20764     20762     20763
     20764     20765     20764     20766     20764     20776     20776     20777
     20776     20778     20776     20779     20779     20780     20779     20781
     20779     20782     20782     20783     20782     20784     20782     20785
     20785     20786     20785     20787     20785     20788     20788     20789
     20788     20790     20788     20791     20791     20792     20791     20793
     20791     20794     20794     20795     20794     20796     20796     20797
     20796     20798     20798     20799     20798     20800     20798     20801
     20801     20802     20801     20803     20801     20804     20804     20805
     20804     20806     20804     20807     20807     20808     20807     20809
     20807     20810     20810     20811     20810     20812     20810     20813
     20813     20814     20813     20815     20813     20816     20816     20817
     20816     20818     20816     20819     20819     20820     20819     20821
     20819     20822     20770     20771     20771     20773     20771     20772
     20773     20774     20773     20775     20773     20823     20823     20824
     20823     20825     20823     20826     20826     20827     20826     20828
     20826     20829     20829     20830     20829     20831     20829     20832
     20832     20833     20832     20834     20832     20835     20835     20836
     20835     20837     20835     20838     20838     20839     20838     20840
     20838     20841     20841     20842     20841     20843     20841     20844
     20844     20845     20844     20846     20844     20847     20847     20848
     20847     20849     20847     20850     20850     20851     20850     20852
     20850     20853     20853     20854     20853     20855     20853     20856
     20856     20857     20856     20858     20856     20859     20859     20860
     20859     20861     20859     20862     20862     20863     20862     20864
     20862     20865     20865     20866     20865     20867     20865     20868
     20868     20869     20868     20870     20868     20871     20872     20876
     20872     20880     20872     20884     20876     20877     20876     20878
     20876     20879     20880     20881     20880     20882     20880     20883
     20884     20885     20884     20886     20884     20887     20872     20873
     20873     20874     20873     20875     20873     20888     20888     20889
     20888     20890     20888     20894     20895     20896     20894     20891
     20891     20895     20891     20892     20891     20893     20896     20897
     20896     20898     20896     20899     20899     20900     20899     20907
     20899     20901     20907     20908     20907     20909     20907     20910
     20901     20902     20902     20904     20902     20903     20904     20905
     20904     20906     20904     20916     20916     20917     20916     20918
     20916     20919     20919     20920     20919     20921     20919     20922
     20922     20923     20922     20924     20924     20925     20924     20926
     20926     20927     20926     20928     20926     20929     20929     20930
     20929     20931     20931     20932     20931     20933     20933     20934
     20933     20935     20933     20936     20936     20937     20936     20938
     20938     20939     20938     20940     20940     20941     20940     20942
     20940     20943     20943     20944     20943     20945     20945     20946
     20945     20947     20947     20948     20947     20949     20947     20950
     20950     20951     20950     20952     20950     20953     20953     20954
     20953     20955     20953     20956     20956     20957     20956     20958
     20956     20959     20959     20960     20959     20961     20959     20962
     20910     20911     20911     20913     20911     20912     20913     20914
     20913     20915     20913     20963     20963     20964     20963     20965
     20963     20966     20966     20967     20966     20968     20966     20969
     20969     20970     20969     20971     20969     20972     20972     20973
     20972     20974     20972     20975     20975     20976     20975     20977
     20975     20978     20978     20979     20978     20980     20978     20981
     20981     20982     20981     20983     20981     20984     20984     20985
     20984     20986     20984     20987     20987     20988     20987     20989
     20987     20990     20990     20991     20990     20992     20990     20993
     20993     20994     20993     20995     20993     20996     20996     20997
     20996     20998     20996     20999     20999     21000     20999     21001
     20999     21002     21002     21003     21002     21004     21002     21005
     21005     21006     21005     21007     21005     21008     21008     21009
     21008     21010     21008     21011     21012     21014     21012     21013
     21014     21015     21012     21058     21058     21059     21058     21060
     21058     21055     21055     21056     21055     21057     21012     21016
     21016     21017     21016     21018     21016     21019     21019     21050
     21050     21055     21050     21051     21051     21052     21051     21053
     21051     21054     21019     21020     21020     21021     21020     21022
     21022     21023     21022     21024     21022     21025     21025     21026
     21025     21048     21048     21049     21048     21050     21025     21027
     21027     21028     21027     21037     21037     21042     21042     21043
     21042     21044     21042     21045     21045     21046     21045     21047
     21045     21048     21037     21038     21038     21039     21038     21040
     21038     21041     21027     21029     21029     21030     21029     21031
     21029     21032     21032     21033     21032     21034     21032     21035
     21035     21036     21035     21037     21035     21061     21061     21062
     21061     21063     21063     21064     21063     21065     21063     21066
     21061     21067     21067     21068     21067     21069     21067     21070
     21070     21071     21070     21072     21070     21073     21073     21074
     21073     21075     21073     21076     21076     21077     21076     21078
     21078     21079     21078     21080     21078     21081     21076     21082
     21082     21083     21082     21084     21082     21085     21086     21087
     21086     21088     21086     21089     21086     21090     21094     21092
     21092     21090     21092     21093     21090     21091     21090     21095
     21103     21102     21095     21096     21095     21097     21095     21101
     21101     21098     21098     21102     21098     21099     21098     21100
     21103     21104     21103     21105     21103     21106     21106     21107
     21106     21114     21106     21108     21114     21115     21114     21116
     21114     21117     21108     21109     21109     21111     21109     21110
     21111     21112     21111     21113     21111     21123     21123     21124
     21123     21125     21123     21126     21126     21127     21126     21128
     21126     21129     21129     21130     21129     21131     21131     21132
     21131     21133     21133     21134     21133     21135     21133     21136
     21136     21137     21136     21138     21138     21139     21138     21140
     21140     21141     21140     21142     21140     21143     21143     21144
     21143     21145     21145     21146     21145     21147     21147     21148
     21147     21149     21147     21150     21150     21151     21150     21152
     21152     21153     21152     21154     21154     21155     21154     21156
     21154     21157     21157     21158     21157     21159     21157     21160
     21160     21161     21160     21162     21160     21163     21163     21164
     21163     21165     21163     21166     21166     21167     21166     21168
     21166     21169     21117     21118     21118     21120     21118     21119
     21120     21121     21120     21122     21120     21170     21170     21171
     21170     21172     21170     21173     21173     21174     21173     21175
     21173     21176     21176     21177     21176     21178     21176     21179
     21179     21180     21179     21181     21179     21182     21182     21183
     21182     21184     21182     21185     21185     21186     21185     21187
     21185     21188     21188     21189     21188     21190     21188     21191
     21191     21192     21191     21193     21191     21194     21194     21195
     21194     21196     21194     21197     21197     21198     21197     21199
     21197     21200     21200     21201     21200     21202     21200     21203
     21203     21204     21203     21205     21203     21206     21206     21207
     21206     21208     21206     21209     21209     21210     21209     21211
     21209     21212     21212     21213     21212     21214     21212     21215
     21215     21216     21215     21217     21215     21218     21219     21223
     21219     21227     21219     21231     21223     21224     21223     21225
     21223     21226     21227     21228     21227     21229     21227     21230
     21231     21232     21231     21233     21231     21234     21219     21220
     21220     21221     21220     21222     21220     21235     21235     21236
     21235     21237     21235     21241     21242     21243     21241     21238
     21238     21242     21238     21239     21238     21240     21243     21244
     21243     21245     21243     21246     21246     21247     21246     21254
     21246     21248     21254     21255     21254     21256     21254     21257
     21248     21249     21249     21251     21249     21250     21251     21252
     21251     21253     21251     21263     21263     21264     21263     21265
     21263     21266     21266     21267     21266     21268     21266     21269
     21269     21270     21269     21271     21271     21272     21271     21273
     21273     21274     21273     21275     21273     21276     21276     21277
     21276     21278     21278     21279     21278     21280     21280     21281
     21280     21282     21280     21283     21283     21284     21283     21285
     21285     21286     21285     21287     21287     21288     21287     21289
     21287     21290     21290     21291     21290     21292     21292     21293
     21292     21294     21294     21295     21294     21296     21294     21297
     21297     21298     21297     21299     21297     21300     21300     21301
     21300     21302     21300     21303     21303     21304     21303     21305
     21303     21306     21306     21307     21306     21308     21306     21309
     21257     21258     21258     21260     21258     21259     21260     21261
     21260     21262     21260     21310     21310     21311     21310     21312
     21310     21313     21313     21314     21313     21315     21313     21316
     21316     21317     21316     21318     21316     21319     21319     21320
     21319     21321     21319     21322     21322     21323     21322     21324
     21322     21325     21325     21326     21325     21327     21325     21328
     21328     21329     21328     21330     21328     21331     21331     21332
     21331     21333     21331     21334     21334     21335     21334     21336
     21334     21337     21337     21338     21337     21339     21337     21340
     21340     21341     21340     21342     21340     21343     21343     21344
     21343     21345     21343     21346     21346     21347     21346     21348
     21346     21349     21349     21350     21349     21351     21349     21352
     21352     21353     21352     21354     21352     21355     21355     21356
     21355     21357     21355     21358     21359     21360     21359     21364
     21359     21368     21360     21361     21360     21362     21360     21363
     21364     21365     21364     21366     21364     21367     21368     21369
     21368     21370     21368     21371     21359     21372     21372     21373
     21372     21374     21372     21375     21375     21376     21375     21377
     21375     21381     21382     21383     21381     21378     21378     21382
     21378     21379     21378     21380     21383     21384     21383     21385
     21383     21386     21386     21387     21386     21394     21386     21388
     21394     21395     21394     21396     21394     21397     21388     21389
     21389     21391     21389     21390     21391     21392     21391     21393
     21391     21403     21403     21404     21403     21405     21403     21406
     21406     21407     21406     21408     21406     21409     21409     21410
     21409     21411     21409     21412     21412     21413     21412     21414
     21412     21415     21415     21416     21415     21417     21415     21418
     21418     21419     21418     21420     21418     21421     21421     21422
     21421     21423     21423     21424     21423     21425     21425     21426
     21425     21427     21425     21428     21428     21429     21428     21430
     21430     21431     21430     21432     21432     21433     21432     21434
     21432     21435     21435     21436     21435     21437     21435     21438
     21438     21439     21438     21440     21438     21441     21441     21442
     21441     21443     21441     21444     21444     21445     21444     21446
     21444     21447     21397     21398     21398     21400     21398     21399
     21400     21401     21400     21402     21400     21448     21448     21449
     21448     21450     21448     21451     21451     21452     21451     21453
     21451     21454     21454     21455     21454     21456     21454     21457
     21457     21458     21457     21459     21457     21460     21460     21461
     21460     21462     21460     21463     21463     21464     21463     21465
     21463     21466     21466     21467     21466     21468     21466     21469
     21469     21470     21469     21471     21469     21472     21472     21473
     21472     21474     21472     21475     21475     21476     21475     21477
     21475     21478     21478     21479     21478     21480     21478     21481
     21481     21482     21481     21483     21481     21484     21484     21485
     21484     21486     21484     21487     21487     21488     21487     21489
     21487     21490     21490     21491     21490     21492     21490     21493
     21493     21494     21493     21495     21493     21496     21497     21499
     21497     21498     21499     21500     21497     21543     21543     21544
     21543     21545     21543     21540     21540     21541     21540     21542
     21497     21501     21501     21502     21501     21503     21501     21504
     21504     21535     21535     21540     21535     21536     21536     21537
     21536     21538     21536     21539     21504     21505     21505     21506
     21505     21507     21507     21508     21507     21509     21507     21510
     21510     21511     21510     21533     21533     21534     21533     21535
     21510     21512     21512     21513     21512     21522     21522     21527
     21527     21528     21527     21529     21527     21530     21530     21531
     21530     21532     21530     21533     21522     21523     21523     21524
     21523     21525     21523     21526     21512     21514     21514     21515
     21514     21516     21514     21517     21517     21518     21517     21519
     21517     21520     21520     21521     21520     21522     21520     21546
     21546     21547     21546     21548     21548     21549     21548     21550
     21548     21551     21546     21552     21552     21553     21552     21554
     21552     21555     21555     21556     21555     21557     21555     21558
     21558     21559     21558     21560     21558     21561     21561     21562
     21561     21563     21563     21564     21563     21565     21563     21566
     21561     21567     21567     21568     21567     21569     21567     21570
     21571     21573     21571     21572     21573     21574     21571     21617
     21617     21618     21617     21619     21617     21614     21614     21615
     21614     21616     21571     21575     21575     21576     21575     21577
     21575     21578     21578     21609     21609     21614     21609     21610
     21610     21611     21610     21612     21610     21613     21578     21579
     21579     21580     21579     21581     21581     21582     21581     21583
     21581     21584     21584     21585     21584     21607     21607     21608
     21607     21609     21584     21586     21586     21587     21586     21596
     21596     21601     21601     21602     21601     21603     21601     21604
     21604     21605     21604     21606     21604     21607     21596     21597
     21597     21598     21597     21599     21597     21600     21586     21588
     21588     21589     21588     21590     21588     21591     21591     21592
     21591     21593     21591     21594     21594     21595     21594     21596
     21594     21620     21620     21621     21620     21622     21622     21623
     21622     21624     21622     21625     21620     21626     21626     21627
     21626     21628     21626     21629     21629     21630     21629     21631
     21629     21632     21632     21633     21632     21634     21632     21635
     21635     21636     21635     21637     21637     21638     21637     21639
     21637     21640     21635     21641     21641     21642     21641     21643
     21641     21644     21645     21649     21645     21653     21645     21657
     21649     21650     21649     21651     21649     21652     21653     21654
     21653     21655     21653     21656     21657     21658     21657     21659
     21657     21660     21645     21646     21646     21647     21646     21648
     21646     21661     21661     21662     21661     21663     21661     21667
     21668     21669     21667     21664     21664     21668     21664     21665
     21664     21666     21669     21670     21669     21671     21669     21672
     21672     21673     21672     21680     21672     21674     21680     21681
     21680     21682     21680     21683     21674     21675     21675     21677
     21675     21676     21677     21678     21677     21679     21677     21689
     21689     21690     21689     21691     21689     21692     21692     21693
     21692     21694     21692     21695     21695     21696     21695     21697
     21695     21698     21698     21699     21698     21700     21698     21701
     21701     21702     21701     21703     21701     21704     21704     21705
     21704     21706     21704     21707     21707     21708     21707     21709
     21709     21710     21709     21711     21711     21712     21711     21713
     21711     21714     21714     21715     21714     21716     21714     21717
     21717     21718     21717     21719     21717     21720     21720     21721
     21720     21722     21720     21723     21723     21724     21723     21725
     21723     21726     21726     21727     21726     21728     21726     21729
     21729     21730     21729     21731     21729     21732     21732     21733
     21732     21734     21732     21735     21683     21684     21684     21686
     21684     21685     21686     21687     21686     21688     21686     21736
     21736     21737     21736     21738     21736     21739     21739     21740
     21739     21741     21739     21742     21742     21743     21742     21744
     21742     21745     21745     21746     21745     21747     21745     21748
     21748     21749     21748     21750     21748     21751     21751     21752
     21751     21753     21751     21754     21754     21755     21754     21756
     21754     21757     21757     21758     21757     21759     21757     21760
     21760     21761     21760     21762     21760     21763     21763     21764
     21763     21765     21763     21766     21766     21767     21766     21768
     21766     21769     21769     21770     21769     21771     21769     21772
     21772     21773     21772     21774     21772     21775     21775     21776
     21775     21777     21775     21778     21779     21780     21779     21781
     21779     21782     21779     21783     21783     21784     21783     21785
     21783     21786     21786     21787     21786     21788     21786     21792
     21794     21793     21792     21789     21789     21793     21789     21790
     21789     21791     21794     21795     21794     21796     21794     21797
     21797     21798     21797     21805     21797     21799     21805     21806
     21805     21807     21805     21808     21799     21800     21800     21802
     21800     21801     21802     21803     21802     21804     21802     21814
     21814     21815     21814     21816     21814     21817     21817     21818
     21817     21819     21817     21820     21820     21821     21820     21822
     21822     21823     21822     21824     21824     21825     21824     21826
     21824     21827     21827     21828     21827     21829     21829     21830
     21829     21831     21831     21832     21831     21833     21831     21834
     21834     21835     21834     21836     21836     21837     21836     21838
     21838     21839     21838     21840     21838     21841     21841     21842
     21841     21843     21843     21844     21843     21845     21845     21846
     21845     21847     21845     21848     21848     21849     21848     21850
     21848     21851     21851     21852     21851     21853     21851     21854
     21854     21855     21854     21856     21854     21857     21857     21858
     21857     21859     21857     21860     21808     21809     21809     21811
     21809     21810     21811     21812     21811     21813     21811     21861
     21861     21862     21861     21863     21861     21864     21864     21865
     21864     21866     21864     21867     21867     21868     21867     21869
     21867     21870     21870     21871     21870     21872     21870     21873
     21873     21874     21873     21875     21873     21876     21876     21877
     21876     21878     21876     21879     21879     21880     21879     21881
     21879     21882     21882     21883     21882     21884     21882     21885
     21885     21886     21885     21887     21885     21888     21888     21889
     21888     21890     21888     21891     21891     21892     21891     21893
     21891     21894     21894     21895     21894     21896     21894     21897
     21897     21898     21897     21899     21897     21900     21900     21901
     21900     21902     21900     21903     21903     21904     21903     21905
     21903     21906     21906     21907     21906     21908     21906     21909
     21910     21914     21910     21918     21910     21922     21914     21915
     21914     21916     21914     21917     21918     21919     21918     21920
     21918     21921     21922     21923     21922     21924     21922     21925
     21910     21911     21911     21912     21911     21913     21911     21926
     21926     21927     21926     21928     21926     21932     21933     21934
     21932     21929     21929     21933     21929     21930     21929     21931
     21934     21935     21934     21936     21934     21937     21937     21938
     21937     21945     21937     21939     21945     21946     21945     21947
     21945     21948     21939     21940     21940     21942     21940     21941
     21942     21943     21942     21944     21942     21954     21954     21955
     21954     21956     21954     21957     21957     21958     21957     21959
     21957     21960     21960     21961     21960     21962     21962     21963
     21962     21964     21964     21965     21964     21966     21964     21967
     21967     21968     21967     21969     21969     21970     21969     21971
     21971     21972     21971     21973     21971     21974     21974     21975
     21974     21976     21976     21977     21976     21978     21978     21979
     21978     21980     21978     21981     21981     21982     21981     21983
     21983     21984     21983     21985     21985     21986     21985     21987
     21985     21988     21988     21989     21988     21990     21988     21991
     21991     21992     21991     21993     21991     21994     21994     21995
     21994     21996     21994     21997     21997     21998     21997     21999
     21997     22000     21948     21949     21949     21951     21949     21950
     21951     21952     21951     21953     21951     22001     22001     22002
     22001     22003     22001     22004     22004     22005     22004     22006
     22004     22007     22007     22008     22007     22009     22007     22010
     22010     22011     22010     22012     22010     22013     22013     22014
     22013     22015     22013     22016     22016     22017     22016     22018
     22016     22019     22019     22020     22019     22021     22019     22022
     22022     22023     22022     22024     22022     22025     22025     22026
     22025     22027     22025     22028     22028     22029     22028     22030
     22028     22031     22031     22032     22031     22033     22031     22034
     22034     22035     22034     22036     22034     22037     22037     22038
     22037     22039     22037     22040     22040     22041     22040     22042
     22040     22043     22043     22044     22043     22045     22043     22046
     22046     22047     22046     22048     22046     22049     22050     22051
     22050     22055     22050     22059     22051     22052     22051     22053
     22051     22054     22055     22056     22055     22057     22055     22058
     22059     22060     22059     22061     22059     22062     22050     22063
     22063     22064     22063     22065     22063     22066     22066     22067
     22066     22068     22066     22072     22073     22074     22072     22069
     22069     22073     22069     22070     22069     22071     22074     22075
     22074     22076     22074     22077     22077     22078     22077     22085
     22077     22079     22085     22086     22085     22087     22085     22088
     22079     22080     22080     22082     22080     22081     22082     22083
     22082     22084     22082     22094     22094     22095     22094     22096
     22094     22097     22097     22098     22097     22099     22097     22100
     22100     22101     22100     22102     22100     22103     22103     22104
     22103     22105     22103     22106     22106     22107     22106     22108
     22106     22109     22109     22110     22109     22111     22109     22112
     22112     22113     22112     22114     22114     22115     22114     22116
     22116     22117     22116     22118     22116     22119     22119     22120
     22119     22121     22121     22122     22121     22123     22123     22124
     22123     22125     22123     22126     22126     22127     22126     22128
     22126     22129     22129     22130     22129     22131     22129     22132
     22132     22133     22132     22134     22132     22135     22135     22136
     22135     22137     22135     22138     22088     22089     22089     22091
     22089     22090     22091     22092     22091     22093     22091     22139
     22139     22140     22139     22141     22139     22142     22142     22143
     22142     22144     22142     22145     22145     22146     22145     22147
     22145     22148     22148     22149     22148     22150     22148     22151
     22151     22152     22151     22153     22151     22154     22154     22155
     22154     22156     22154     22157     22157     22158     22157     22159
     22157     22160     22160     22161     22160     22162     22160     22163
     22163     22164     22163     22165     22163     22166     22166     22167
     22166     22168     22166     22169     22169     22170     22169     22171
     22169     22172     22172     22173     22172     22174     22172     22175
     22175     22176     22175     22177     22175     22178     22178     22179
     22178     22180     22178     22181     22181     22182     22181     22183
     22181     22184     22184     22185     22184     22186     22184     22187
     22188     22189     22188     22190     22188     22191     22188     22192
     22196     22194     22194     22192     22194     22195     22192     22193
     22192     22197     22205     22204     22197     22198     22197     22199
     22197     22203     22203     22200     22200     22204     22200     22201
     22200     22202     22205     22206     22205     22207     22205     22208
     22208     22209     22208     22216     22208     22210     22216     22217
     22216     22218     22216     22219     22210     22211     22211     22213
     22211     22212     22213     22214     22213     22215     22213     22225
     22225     22226     22225     22227     22225     22228     22228     22229
     22228     22230     22228     22231     22231     22232     22231     22233
     22233     22234     22233     22235     22235     22236     22235     22237
     22235     22238     22238     22239     22238     22240     22240     22241
     22240     22242     22242     22243     22242     22244     22242     22245
     22245     22246     22245     22247     22247     22248     22247     22249
     22249     22250     22249     22251     22249     22252     22252     22253
     22252     22254     22254     22255     22254     22256     22256     22257
     22256     22258     22256     22259     22259     22260     22259     22261
     22259     22262     22262     22263     22262     22264     22262     22265
     22265     22266     22265     22267     22265     22268     22268     22269
     22268     22270     22268     22271     22219     22220     22220     22222
     22220     22221     22222     22223     22222     22224     22222     22272
     22272     22273     22272     22274     22272     22275     22275     22276
     22275     22277     22275     22278     22278     22279     22278     22280
     22278     22281     22281     22282     22281     22283     22281     22284
     22284     22285     22284     22286     22284     22287     22287     22288
     22287     22289     22287     22290     22290     22291     22290     22292
     22290     22293     22293     22294     22293     22295     22293     22296
     22296     22297     22296     22298     22296     22299     22299     22300
     22299     22301     22299     22302     22302     22303     22302     22304
     22302     22305     22305     22306     22305     22307     22305     22308
     22308     22309     22308     22310     22308     22311     22311     22312
     22311     22313     22311     22314     22314     22315     22314     22316
     22314     22317     22317     22318     22317     22319     22317     22320

     43040 !NTHETA: angles
         1         5         6         1         5         7         1         5        10
         2         1         3         2         1         4         2         1         5
         3         1         4         3         1         5         4         1         5
         5         7         8         5         7         9         5        10        11
         5        10        12         5        10        16         6         5         7
         6         5        10         7         5        10         8         7         9
        10        16        13        11        10        12        11        10        16
        12        10        16        13        17        18        14        13        15
        14        13        16        14        13        17        15        13        16
        15        13        17        16        13        17        17        18        19
        17        18        20        17        18        21        18        21        22
        18        21        23        18        21        29        19        18        20
        19        18        21        20        18        21        21        23        24
        21        29        30        21        29        31        21        29        32
        22        21        23        22        21        29        23        21        29
        23        24        25        23        24        26        24        26        27
        24        26        28        24        26        38        25        24        26
        26        38        39        26        38        40        26        38        41
        27        26        28        27        26        38        28        26        38
        29        32        33        30        29        31        30        29        32
        31        29        32        32        33        34        32        33        35
        33        35        36        33        35        37        33        35        85
        34        33        35        35        85        86        35        85        87
        35        85        88        36        35        37        36        35        85
        37        35        85        38        41        42        38        41        43
        38        41        44        39        38        40        39        38        41
        40        38        41        41        44        45        41        44        46
        42        41        43        42        41        44        43        41        44
        44        46        47        44        46        48        45        44        46
        46        48        49        46        48        50        46        48        51
        47        46        48        48        51        52        48        51        53
        49        48        50        49        48        51        50        48        51
        51        53        54        51        53        55        52        51        53
        53        55        56        53        55        57        53        55        58
        54        53        55        55        58        59        55        58        60
        56        55        57        56        55        58        57        55        58
        58        60        61        58        60        62        59        58        60
        60        62        63        60        62        64        60        62        65
        61        60        62        62        65        66        62        65        67
        63        62        64        63        62        65        64        62        65
        65        67        68        65        67        69        66        65        67
        67        69        70        67        69        71        67        69        72
        68        67        69        69        72        73        69        72        74
        69        72        75        70        69        71        70        69        72
        71        69        72        72        75        76        72        75        77
        72        75        78        73        72        74        73        72        75
        74        72        75        75        78        79        75        78        80
        75        78        81        76        75        77        76        75        78
        77        75        78        78        81        82        78        81        83
        78        81        84        79        78        80        79        78        81
        80        78        81        82        81        83        82        81        84
        83        81        84        85        88        89        85        88        90
        85        88        91        86        85        87        86        85        88
        87        85        88        88        91        92        88        91        93
        88        91        94        89        88        90        89        88        91
        90        88        91        91        94        95        91        94        96
        91        94        97        92        91        93        92        91        94
        93        91        94        94        97        98        94        97        99
        94        97       100        95        94        96        95        94        97
        96        94        97        97       100       101        97       100       102
        97       100       103        98        97        99        98        97       100
        99        97       100       100       103       104       100       103       105
       100       103       106       101       100       102       101       100       103
       102       100       103       103       106       107       103       106       108
       103       106       109       104       103       105       104       103       106
       105       103       106       106       109       110       106       109       111
       106       109       112       107       106       108       107       106       109
       108       106       109       109       112       113       109       112       114
       109       112       115       110       109       111       110       109       112
       111       109       112       112       115       116       112       115       117
       112       115       118       113       112       114       113       112       115
       114       112       115       115       118       119       115       118       120
       115       118       121       116       115       117       116       115       118
       117       115       118       118       121       122       118       121       123
       118       121       124       119       118       120       119       118       121
       120       118       121       121       124       125       121       124       126
       121       124       127       122       121       123       122       121       124
       123       121       124       124       127       128       124       127       129
       124       127       130       125       124       126       125       124       127
       126       124       127       127       130       131       127       130       132
       127       130       133       128       127       129       128       127       130
       129       127       130       131       130       132       131       130       133
       132       130       133       134       135       136       134       135       137
       134       135       150       134       138       139       134       138       140
       134       138       141       134       142       143       134       142       144
       134       142       145       134       146       147       134       146       148
       134       146       149       135       134       138       135       134       142
       135       134       146       135       150       151       135       150       152
       135       150       156       136       135       137       136       135       150
       137       135       150       138       134       142       138       134       146
       139       138       140       139       138       141       140       138       141
       142       134       146       143       142       144       143       142       145
       144       142       145       147       146       148       147       146       149
       148       146       149       150       156       153       151       150       152
       151       150       156       152       150       156       153       157       158
       154       153       155       154       153       156       154       153       157
       155       153       156       155       153       157       156       153       157
       157       158       159       157       158       160       157       158       161
       158       161       162       158       161       163       158       161       169
       159       158       160       159       158       161       160       158       161
       161       163       164       161       169       170       161       169       171
       161       169       172       162       161       163       162       161       169
       163       161       169       163       164       165       163       164       166
       164       166       167       164       166       168       164       166       178
       165       164       166       166       178       179       166       178       180
       166       178       181       167       166       168       167       166       178
       168       166       178       169       172       173       170       169       171
       170       169       172       171       169       172       172       173       174
       172       173       175       173       175       176       173       175       177
       173       175       225       174       173       175       175       225       226
       175       225       227       175       225       228       176       175       177
       176       175       225       177       175       225       178       181       182
       178       181       183       178       181       184       179       178       180
       179       178       181       180       178       181       181       184       185
       181       184       186       182       181       183       182       181       184
       183       181       184       184       186       187       184       186       188
       185       184       186       186       188       189       186       188       190
       186       188       191       187       186       188       188       191       192
       188       191       193       189       188       190       189       188       191
       190       188       191       191       193       194       191       193       195
       192       191       193       193       195       196       193       195       197
       193       195       198       194       193       195       195       198       199
       195       198       200       196       195       197       196       195       198
       197       195       198       198       200       201       198       200       202
       199       198       200       200       202       203       200       202       204
       200       202       205       201       200       202       202       205       206
       202       205       207       203       202       204       203       202       205
       204       202       205       205       207       208       205       207       209
       206       205       207       207       209       210       207       209       211
       207       209       212       208       207       209       209       212       213
       209       212       214       209       212       215       210       209       211
       210       209       212       211       209       212       212       215       216
       212       215       217       212       215       218       213       212       214
       213       212       215       214       212       215       215       218       219
       215       218       220       215       218       221       216       215       217
       216       215       218       217       215       218       218       221       222
       218       221       223       218       221       224       219       218       220
       219       218       221       220       218       221       222       221       223
       222       221       224       223       221       224       225       228       229
       225       228       230       225       228       231       226       225       227
       226       225       228       227       225       228       228       231       232
       228       231       233       228       231       234       229       228       230
       229       228       231       230       228       231       231       234       235
       231       234       236       231       234       237       232       231       233
       232       231       234       233       231       234       234       237       238
       234       237       239       234       237       240       235       234       236
       235       234       237       236       234       237       237       240       241
       237       240       242       237       240       243       238       237       239
       238       237       240       239       237       240       240       243       244
       240       243       245       240       243       246       241       240       242
       241       240       243       242       240       243       243       246       247
       243       246       248       243       246       249       244       243       245
       244       243       246       245       243       246       246       249       250
       246       249       251       246       249       252       247       246       248
       247       246       249       248       246       249       249       252       253
       249       252       254       249       252       255       250       249       251
       250       249       252       251       249       252       252       255       256
       252       255       257       252       255       258       253       252       254
       253       252       255       254       252       255       255       258       259
       255       258       260       255       258       261       256       255       257
       256       255       258       257       255       258       258       261       262
       258       261       263       258       261       264       259       258       260
       259       258       261       260       258       261       261       264       265
       261       264       266       261       264       267       262       261       263
       262       261       264       263       261       264       264       267       268
       264       267       269       264       267       270       265       264       266
       265       264       267       266       264       267       267       270       271
       267       270       272       267       270       273       268       267       269
       268       267       270       269       267       270       271       270       272
       271       270       273       272       270       273       274       275       276
       274       275       277       274       275       290       274       278       279
       274       278       280       274       278       281       274       282       283
       274       282       284       274       282       285       274       286       287
       274       286       288       274       286       289       275       274       278
       275       274       282       275       274       286       275       290       291
       275       290       292       275       290       296       276       275       277
       276       275       290       277       275       290       278       274       282
       278       274       286       279       278       280       279       278       281
       280       278       281       282       274       286       283       282       284
       283       282       285       284       282       285       287       286       288
       287       286       289       288       286       289       290       296       293
       291       290       292       291       290       296       292       290       296
       293       297       298       294       293       295       294       293       296
       294       293       297       295       293       296       295       293       297
       296       293       297       297       298       299       297       298       300
       297       298       301       298       301       302       298       301       303
       298       301       309       299       298       300       299       298       301
       300       298       301       301       303       304       301       309       310
       301       309       311       301       309       312       302       301       303
       302       301       309       303       301       309       303       304       305
       303       304       306       304       306       307       304       306       308
       304       306       318       305       304       306       306       318       319
       306       318       320       306       318       321       307       306       308
       307       306       318       308       306       318       309       312       313
       310       309       311       310       309       312       311       309       312
       312       313       314       312       313       315       313       315       316
       313       315       317       313       315       365       314       313       315
       315       365       366       315       365       367       315       365       368
       316       315       317       316       315       365       317       315       365
       318       321       322       318       321       323       318       321       324
       319       318       320       319       318       321       320       318       321
       321       324       325       321       324       326       321       324       327
       322       321       323       322       321       324       323       321       324
       324       327       328       324       327       329       324       327       330
       325       324       326       325       324       327       326       324       327
       327       330       331       327       330       332       327       330       333
       328       327       329       328       327       330       329       327       330
       330       333       334       330       333       335       330       333       336
       331       330       332       331       330       333       332       330       333
       333       336       337       333       336       338       334       333       335
       334       333       336       335       333       336       336       338       339
       336       338       340       337       336       338       338       340       341
       338       340       342       338       340       343       339       338       340
       340       343       344       340       343       345       340       343       346
       341       340       342       341       340       343       342       340       343
       343       346       347       343       346       348       343       346       349
       344       343       345       344       343       346       345       343       346
       346       349       350       346       349       351       346       349       352
       347       346       348       347       346       349       348       346       349
       349       352       353       349       352       354       349       352       355
       350       349       351       350       349       352       351       349       352
       352       355       356       352       355       357       352       355       358
       353       352       354       353       352       355       354       352       355
       355       358       359       355       358       360       355       358       361
       356       355       357       356       355       358       357       355       358
       358       361       362       358       361       363       358       361       364
       359       358       360       359       358       361       360       358       361
       362       361       363       362       361       364       363       361       364
       365       368       369       365       368       370       365       368       371
       366       365       367       366       365       368       367       365       368
       368       371       372       368       371       373       368       371       374
       369       368       370       369       368       371       370       368       371
       371       374       375       371       374       376       371       374       377
       372       371       373       372       371       374       373       371       374
       374       377       378       374       377       379       374       377       380
       375       374       376       375       374       377       376       374       377
       377       380       381       377       380       382       377       380       383
       378       377       379       378       377       380       379       377       380
       380       383       384       380       383       385       380       383       386
       381       380       382       381       380       383       382       380       383
       383       386       387       383       386       388       383       386       389
       384       383       385       384       383       386       385       383       386
       386       389       390       386       389       391       386       389       392
       387       386       388       387       386       389       388       386       389
       389       392       393       389       392       394       389       392       395
       390       389       391       390       389       392       391       389       392
       392       395       396       392       395       397       392       395       398
       393       392       394       393       392       395       394       392       395
       395       398       399       395       398       400       395       398       401
       396       395       397       396       395       398       397       395       398
       398       401       402       398       401       403       398       401       404
       399       398       400       399       398       401       400       398       401
       401       404       405       401       404       406       401       404       407
       402       401       403       402       401       404       403       401       404
       405       404       406       405       404       407       406       404       407
       408       410       411       408       412       413       408       412       414
       408       412       415       408       454       451       408       454       455
       408       454       456       409       408       410       409       408       412
       409       408       454       410       408       412       410       408       454
       412       408       454       412       415       416       412       415       446
       413       412       414       413       412       415       414       412       415
       415       416       417       415       416       418       415       446       444
       415       446       447       415       446       451       416       415       446
       416       418       419       416       418       420       416       418       421
       417       416       418       418       421       422       418       421       423
       418       421       444       419       418       420       419       418       421
       420       418       421       421       423       424       421       423       425
       421       423       433       421       444       441       421       444       445
       421       444       446       422       421       423       422       421       444
       423       421       444       423       425       426       423       425       427
       423       425       428       423       433       431       423       433       434
       423       433       438       424       423       425       424       423       433
       425       423       433       425       428       429       425       428       430
       425       428       431       426       425       427       426       425       428
       427       425       428       428       431       432       428       431       433
       428       431       457       429       428       430       429       428       431
       430       428       431       431       433       434       431       433       438
       431       457       458       431       457       459       431       457       463
       432       431       433       432       431       457       433       431       457
       433       434       435       433       434       436       433       434       437
       433       438       439       433       438       440       433       438       441
       434       433       438       435       434       436       435       434       437
       436       434       437       438       441       442       438       441       443
       438       441       444       439       438       440       439       438       441
       440       438       441       441       444       445       441       444       446
       442       441       443       442       441       444       443       441       444
       444       446       447       444       446       451       445       444       446
       446       447       448       446       447       449       446       447       450
       446       451       452       446       451       453       446       451       454
       447       446       451       448       447       449       448       447       450
       449       447       450       451       454       455       451       454       456
       452       451       453       452       451       454       453       451       454
       455       454       456       457       459       460       457       459       461
       457       459       462       457       463       464       457       463       465
       457       463       466       458       457       459       458       457       463
       459       457       463       460       459       461       460       459       462
       461       459       462       463       466       467       463       466       468
       463       466       469       464       463       465       464       463       466
       465       463       466       466       469       470       466       469       471
       466       469       472       467       466       468       467       466       469
       468       466       469       469       472       473       469       472       474
       469       472       478       470       469       471       470       469       472
       471       469       472       472       474       475       472       474       476
       472       474       477       472       478       479       472       478       480
       472       478       481       473       472       474       473       472       478
       474       472       478       475       474       476       475       474       477
       476       474       477       479       478       480       479       478       481
       480       478       481       482       483       484       482       483       485
       482       483       486       482       487       488       482       487       489
       482       487       490       482       491       492       482       491       493
       482       491       494       482       495       496       482       495       497
       482       495       498       483       482       487       483       482       491
       483       482       495       484       483       485       484       483       486
       485       483       486       487       482       491       487       482       495
       488       487       489       488       487       490       489       487       490
       491       482       495       492       491       493       492       491       494
       493       491       494       495       498       499       495       498       500
       495       498       505       496       495       497       496       495       498
       497       495       498       498       505       501       499       498       500
       499       498       505       500       498       505       501       504       506
       502       501       503       502       501       504       502       501       505
       503       501       504       503       501       505       504       501       505
       504       506       507       504       506       508       504       506       511
       506       511       509       506       511       512       506       511       513
       507       506       508       507       506       511       508       506       511
       509       511       512       509       511       513       509       561       562
       509       561       563       510       509       511       510       509       561
       511       509       561       511       513       514       511       513       515
       511       513       517       512       511       513       513       515       516
       513       517       518       513       517       519       514       513       515
       514       513       517       515       513       517       517       519       520
       517       519       521       518       517       519       519       521       522
       519       521       523       519       521       524       520       519       521
       521       524       525       521       524       526       521       524       527
       522       521       523       522       521       524       523       521       524
       524       527       528       524       527       529       524       527       530
       525       524       526       525       524       527       526       524       527
       527       530       531       527       530       532       527       530       533
       528       527       529       528       527       530       529       527       530
       530       533       534       530       533       535       530       533       536
       531       530       532       531       530       533       532       530       533
       533       536       537       533       536       538       533       536       539
       534       533       535       534       533       536       535       533       536
       536       539       540       536       539       541       536       539       542
       537       536       538       537       536       539       538       536       539
       539       542       543       539       542       544       539       542       545
       540       539       541       540       539       542       541       539       542
       542       545       546       542       545       547       542       545       548
       543       542       544       543       542       545       544       542       545
       545       548       549       545       548       550       545       548       551
       546       545       547       546       545       548       547       545       548
       548       551       552       548       551       553       548       551       554
       549       548       550       549       548       551       550       548       551
       551       554       555       551       554       556       551       554       557
       552       551       553       552       551       554       553       551       554
       554       557       558       554       557       559       554       557       560
       555       554       556       555       554       557       556       554       557
       558       557       559       558       557       560       559       557       560
       561       563       564       561       563       565       561       563       566
       562       561       563       563       566       567       563       566       568
       563       566       569       564       563       565       564       563       566
       565       563       566       566       569       570       566       569       571
       566       569       572       567       566       568       567       566       569
       568       566       569       569       572       573       569       572       574
       569       572       575       570       569       571       570       569       572
       571       569       572       572       575       576       572       575       577
       572       575       578       573       572       574       573       572       575
       574       572       575       575       578       579       575       578       580
       575       578       581       576       575       577       576       575       578
       577       575       578       578       581       582       578       581       583
       578       581       584       579       578       580       579       578       581
       580       578       581       581       584       585       581       584       586
       582       581       583       582       581       584       583       581       584
       584       586       587       584       586       588       585       584       586
       586       588       589       586       588       590       586       588       591
       587       586       588       588       591       592       588       591       593
       588       591       594       589       588       590       589       588       591
       590       588       591       591       594       595       591       594       596
       591       594       597       592       591       593       592       591       594
       593       591       594       594       597       598       594       597       599
       594       597       600       595       594       596       595       594       597
       596       594       597       597       600       601       597       600       602
       597       600       603       598       597       599       598       597       600
       599       597       600       600       603       604       600       603       605
       600       603       606       601       600       602       601       600       603
       602       600       603       603       606       607       603       606       608
       603       606       609       604       603       605       604       603       606
       605       603       606       606       609       610       606       609       611
       606       609       612       607       606       608       607       606       609
       608       606       609       610       609       611       610       609       612
       611       609       612       613       617       618       613       617       619
       613       617       620       614       613       615       614       613       616
       614       613       617       615       613       616       615       613       617
       616       613       617       617       620       621       617       620       622
       617       620       626       618       617       619       618       617       620
       619       617       620       620       626       623       621       620       622
       621       620       626       622       620       626       623       627       628
       624       623       625       624       623       626       624       623       627
       625       623       626       625       623       627       626       623       627
       627       628       629       627       628       630       627       628       631
       628       631       632       628       631       633       628       631       639
       629       628       630       629       628       631       630       628       631
       631       633       634       631       639       640       631       639       641
       631       639       642       632       631       633       632       631       639
       633       631       639       633       634       635       633       634       636
       634       636       637       634       636       638       634       636       648
       635       634       636       636       648       649       636       648       650
       636       648       651       637       636       638       637       636       648
       638       636       648       639       642       643       640       639       641
       640       639       642       641       639       642       642       643       644
       642       643       645       643       645       646       643       645       647
       643       645       695       644       643       645       645       695       696
       645       695       697       645       695       698       646       645       647
       646       645       695       647       645       695       648       651       652
       648       651       653       648       651       654       649       648       650
       649       648       651       650       648       651       651       654       655
       651       654       656       652       651       653       652       651       654
       653       651       654       654       656       657       654       656       658
       655       654       656       656       658       659       656       658       660
       656       658       661       657       656       658       658       661       662
       658       661       663       659       658       660       659       658       661
       660       658       661       661       663       664       661       663       665
       662       661       663       663       665       666       663       665       667
       663       665       668       664       663       665       665       668       669
       665       668       670       666       665       667       666       665       668
       667       665       668       668       670       671       668       670       672
       669       668       670       670       672       673       670       672       674
       670       672       675       671       670       672       672       675       676
       672       675       677       673       672       674       673       672       675
       674       672       675       675       677       678       675       677       679
       676       675       677       677       679       680       677       679       681
       677       679       682       678       677       679       679       682       683
       679       682       684       679       682       685       680       679       681
       680       679       682       681       679       682       682       685       686
       682       685       687       682       685       688       683       682       684
       683       682       685       684       682       685       685       688       689
       685       688       690       685       688       691       686       685       687
       686       685       688       687       685       688       688       691       692
       688       691       693       688       691       694       689       688       690
       689       688       691       690       688       691       692       691       693
       692       691       694       693       691       694       695       698       699
       695       698       700       695       698       701       696       695       697
       696       695       698       697       695       698       698       701       702
       698       701       703       698       701       704       699       698       700
       699       698       701       700       698       701       701       704       705
       701       704       706       701       704       707       702       701       703
       702       701       704       703       701       704       704       707       708
       704       707       709       704       707       710       705       704       706
       705       704       707       706       704       707       707       710       711
       707       710       712       707       710       713       708       707       709
       708       707       710       709       707       710       710       713       714
       710       713       715       710       713       716       711       710       712
       711       710       713       712       710       713       713       716       717
       713       716       718       713       716       719       714       713       715
       714       713       716       715       713       716       716       719       720
       716       719       721       716       719       722       717       716       718
       717       716       719       718       716       719       719       722       723
       719       722       724       719       722       725       720       719       721
       720       719       722       721       719       722       722       725       726
       722       725       727       722       725       728       723       722       724
       723       722       725       724       722       725       725       728       729
       725       728       730       725       728       731       726       725       727
       726       725       728       727       725       728       728       731       732
       728       731       733       728       731       734       729       728       730
       729       728       731       730       728       731       731       734       735
       731       734       736       731       734       737       732       731       733
       732       731       734       733       731       734       734       737       738
       734       737       739       734       737       740       735       734       736
       735       734       737       736       734       737       737       740       741
       737       740       742       737       740       743       738       737       739
       738       737       740       739       737       740       741       740       742
       741       740       743       742       740       743       744       746       747
       744       748       749       744       748       750       744       748       751
       744       790       787       744       790       791       744       790       792
       745       744       746       745       744       748       745       744       790
       746       744       748       746       744       790       748       744       790
       748       751       752       748       751       782       749       748       750
       749       748       751       750       748       751       751       752       753
       751       752       754       751       782       780       751       782       783
       751       782       787       752       751       782       752       754       755
       752       754       756       752       754       757       753       752       754
       754       757       758       754       757       759       754       757       780
       755       754       756       755       754       757       756       754       757
       757       759       760       757       759       761       757       759       769
       757       780       777       757       780       781       757       780       782
       758       757       759       758       757       780       759       757       780
       759       761       762       759       761       763       759       761       764
       759       769       767       759       769       770       759       769       774
       760       759       761       760       759       769       761       759       769
       761       764       765       761       764       766       761       764       767
       762       761       763       762       761       764       763       761       764
       764       767       768       764       767       769       764       767       793
       765       764       766       765       764       767       766       764       767
       767       769       770       767       769       774       767       793       794
       767       793       795       767       793       799       768       767       769
       768       767       793       769       767       793       769       770       771
       769       770       772       769       770       773       769       774       775
       769       774       776       769       774       777       770       769       774
       771       770       772       771       770       773       772       770       773
       774       777       778       774       777       779       774       777       780
       775       774       776       775       774       777       776       774       777
       777       780       781       777       780       782       778       777       779
       778       777       780       779       777       780       780       782       783
       780       782       787       781       780       782       782       783       784
       782       783       785       782       783       786       782       787       788
       782       787       789       782       787       790       783       782       787
       784       783       785       784       783       786       785       783       786
       787       790       791       787       790       792       788       787       789
       788       787       790       789       787       790       791       790       792
       793       795       796       793       795       797       793       795       798
       793       799       800       793       799       801       793       799       802
       794       793       795       794       793       799       795       793       799
       796       795       797       796       795       798       797       795       798
       799       802       803       799       802       804       799       802       805
       800       799       801       800       799       802       801       799       802
       802       805       806       802       805       807       802       805       808
       803       802       804       803       802       805       804       802       805
       805       808       809       805       808       810       805       808       814
       806       805       807       806       805       808       807       805       808
       808       810       811       808       810       812       808       810       813
       808       814       815       808       814       816       808       814       817
       809       808       810       809       808       814       810       808       814
       811       810       812       811       810       813       812       810       813
       815       814       816       815       814       817       816       814       817
       818       819       820       818       819       821       818       819       834
       818       822       823       818       822       824       818       822       825
       818       826       827       818       826       828       818       826       829
       818       830       831       818       830       832       818       830       833
       819       818       822       819       818       826       819       818       830
       819       834       835       819       834       836       819       834       840
       820       819       821       820       819       834       821       819       834
       822       818       826       822       818       830       823       822       824
       823       822       825       824       822       825       826       818       830
       827       826       828       827       826       829       828       826       829
       831       830       832       831       830       833       832       830       833
       834       840       837       835       834       836       835       834       840
       836       834       840       837       841       842       838       837       839
       838       837       840       838       837       841       839       837       840
       839       837       841       840       837       841       841       842       843
       841       842       844       841       842       845       842       845       846
       842       845       847       842       845       853       843       842       844
       843       842       845       844       842       845       845       847       848
       845       853       854       845       853       855       845       853       856
       846       845       847       846       845       853       847       845       853
       847       848       849       847       848       850       848       850       851
       848       850       852       848       850       862       849       848       850
       850       862       863       850       862       864       850       862       865
       851       850       852       851       850       862       852       850       862
       853       856       857       854       853       855       854       853       856
       855       853       856       856       857       858       856       857       859
       857       859       860       857       859       861       857       859       909
       858       857       859       859       909       910       859       909       911
       859       909       912       860       859       861       860       859       909
       861       859       909       862       865       866       862       865       867
       862       865       868       863       862       864       863       862       865
       864       862       865       865       868       869       865       868       870
       866       865       867       866       865       868       867       865       868
       868       870       871       868       870       872       869       868       870
       870       872       873       870       872       874       870       872       875
       871       870       872       872       875       876       872       875       877
       873       872       874       873       872       875       874       872       875
       875       877       878       875       877       879       876       875       877
       877       879       880       877       879       881       877       879       882
       878       877       879       879       882       883       879       882       884
       880       879       881       880       879       882       881       879       882
       882       884       885       882       884       886       883       882       884
       884       886       887       884       886       888       884       886       889
       885       884       886       886       889       890       886       889       891
       887       886       888       887       886       889       888       886       889
       889       891       892       889       891       893       890       889       891
       891       893       894       891       893       895       891       893       896
       892       891       893       893       896       897       893       896       898
       893       896       899       894       893       895       894       893       896
       895       893       896       896       899       900       896       899       901
       896       899       902       897       896       898       897       896       899
       898       896       899       899       902       903       899       902       904
       899       902       905       900       899       901       900       899       902
       901       899       902       902       905       906       902       905       907
       902       905       908       903       902       904       903       902       905
       904       902       905       906       905       907       906       905       908
       907       905       908       909       912       913       909       912       914
       909       912       915       910       909       911       910       909       912
       911       909       912       912       915       916       912       915       917
       912       915       918       913       912       914       913       912       915
       914       912       915       915       918       919       915       918       920
       915       918       921       916       915       917       916       915       918
       917       915       918       918       921       922       918       921       923
       918       921       924       919       918       920       919       918       921
       920       918       921       921       924       925       921       924       926
       921       924       927       922       921       923       922       921       924
       923       921       924       924       927       928       924       927       929
       924       927       930       925       924       926       925       924       927
       926       924       927       927       930       931       927       930       932
       927       930       933       928       927       929       928       927       930
       929       927       930       930       933       934       930       933       935
       930       933       936       931       930       932       931       930       933
       932       930       933       933       936       937       933       936       938
       933       936       939       934       933       935       934       933       936
       935       933       936       936       939       940       936       939       941
       936       939       942       937       936       938       937       936       939
       938       936       939       939       942       943       939       942       944
       939       942       945       940       939       941       940       939       942
       941       939       942       942       945       946       942       945       947
       942       945       948       943       942       944       943       942       945
       944       942       945       945       948       949       945       948       950
       945       948       951       946       945       947       946       945       948
       947       945       948       948       951       952       948       951       953
       948       951       954       949       948       950       949       948       951
       950       948       951       951       954       955       951       954       956
       951       954       957       952       951       953       952       951       954
       953       951       954       955       954       956       955       954       957
       956       954       957       958       960       961       958       962       963
       958       962       964       958       962       965       958      1004      1001
       958      1004      1005       958      1004      1006       959       958       960
       959       958       962       959       958      1004       960       958       962
       960       958      1004       962       958      1004       962       965       966
       962       965       996       963       962       964       963       962       965
       964       962       965       965       966       967       965       966       968
       965       996       994       965       996       997       965       996      1001
       966       965       996       966       968       969       966       968       970
       966       968       971       967       966       968       968       971       972
       968       971       973       968       971       994       969       968       970
       969       968       971       970       968       971       971       973       974
       971       973       975       971       973       983       971       994       991
       971       994       995       971       994       996       972       971       973
       972       971       994       973       971       994       973       975       976
       973       975       977       973       975       978       973       983       981
       973       983       984       973       983       988       974       973       975
       974       973       983       975       973       983       975       978       979
       975       978       980       975       978       981       976       975       977
       976       975       978       977       975       978       978       981       982
       978       981       983       978       981      1007       979       978       980
       979       978       981       980       978       981       981       983       984
       981       983       988       981      1007      1008       981      1007      1009
       981      1007      1013       982       981       983       982       981      1007
       983       981      1007       983       984       985       983       984       986
       983       984       987       983       988       989       983       988       990
       983       988       991       984       983       988       985       984       986
       985       984       987       986       984       987       988       991       992
       988       991       993       988       991       994       989       988       990
       989       988       991       990       988       991       991       994       995
       991       994       996       992       991       993       992       991       994
       993       991       994       994       996       997       994       996      1001
       995       994       996       996       997       998       996       997       999
       996       997      1000       996      1001      1002       996      1001      1003
       996      1001      1004       997       996      1001       998       997       999
       998       997      1000       999       997      1000      1001      1004      1005
      1001      1004      1006      1002      1001      1003      1002      1001      1004
      1003      1001      1004      1005      1004      1006      1007      1009      1010
      1007      1009      1011      1007      1009      1012      1007      1013      1014
      1007      1013      1015      1007      1013      1016      1008      1007      1009
      1008      1007      1013      1009      1007      1013      1010      1009      1011
      1010      1009      1012      1011      1009      1012      1013      1016      1017
      1013      1016      1018      1013      1016      1019      1014      1013      1015
      1014      1013      1016      1015      1013      1016      1016      1019      1020
      1016      1019      1021      1016      1019      1022      1017      1016      1018
      1017      1016      1019      1018      1016      1019      1019      1022      1023
      1019      1022      1024      1019      1022      1028      1020      1019      1021
      1020      1019      1022      1021      1019      1022      1022      1024      1025
      1022      1024      1026      1022      1024      1027      1022      1028      1029
      1022      1028      1030      1022      1028      1031      1023      1022      1024
      1023      1022      1028      1024      1022      1028      1025      1024      1026
      1025      1024      1027      1026      1024      1027      1029      1028      1030
      1029      1028      1031      1030      1028      1031      1032      1034      1035
      1032      1036      1037      1032      1036      1038      1032      1036      1039
      1032      1078      1075      1032      1078      1079      1032      1078      1080
      1033      1032      1034      1033      1032      1036      1033      1032      1078
      1034      1032      1036      1034      1032      1078      1036      1032      1078
      1036      1039      1040      1036      1039      1070      1037      1036      1038
      1037      1036      1039      1038      1036      1039      1039      1040      1041
      1039      1040      1042      1039      1070      1068      1039      1070      1071
      1039      1070      1075      1040      1039      1070      1040      1042      1043
      1040      1042      1044      1040      1042      1045      1041      1040      1042
      1042      1045      1046      1042      1045      1047      1042      1045      1068
      1043      1042      1044      1043      1042      1045      1044      1042      1045
      1045      1047      1048      1045      1047      1049      1045      1047      1057
      1045      1068      1065      1045      1068      1069      1045      1068      1070
      1046      1045      1047      1046      1045      1068      1047      1045      1068
      1047      1049      1050      1047      1049      1051      1047      1049      1052
      1047      1057      1055      1047      1057      1058      1047      1057      1062
      1048      1047      1049      1048      1047      1057      1049      1047      1057
      1049      1052      1053      1049      1052      1054      1049      1052      1055
      1050      1049      1051      1050      1049      1052      1051      1049      1052
      1052      1055      1056      1052      1055      1057      1052      1055      1081
      1053      1052      1054      1053      1052      1055      1054      1052      1055
      1055      1057      1058      1055      1057      1062      1055      1081      1082
      1055      1081      1083      1055      1081      1087      1056      1055      1057
      1056      1055      1081      1057      1055      1081      1057      1058      1059
      1057      1058      1060      1057      1058      1061      1057      1062      1063
      1057      1062      1064      1057      1062      1065      1058      1057      1062
      1059      1058      1060      1059      1058      1061      1060      1058      1061
      1062      1065      1066      1062      1065      1067      1062      1065      1068
      1063      1062      1064      1063      1062      1065      1064      1062      1065
      1065      1068      1069      1065      1068      1070      1066      1065      1067
      1066      1065      1068      1067      1065      1068      1068      1070      1071
      1068      1070      1075      1069      1068      1070      1070      1071      1072
      1070      1071      1073      1070      1071      1074      1070      1075      1076
      1070      1075      1077      1070      1075      1078      1071      1070      1075
      1072      1071      1073      1072      1071      1074      1073      1071      1074
      1075      1078      1079      1075      1078      1080      1076      1075      1077
      1076      1075      1078      1077      1075      1078      1079      1078      1080
      1081      1083      1084      1081      1083      1085      1081      1083      1086
      1081      1087      1088      1081      1087      1089      1081      1087      1090
      1082      1081      1083      1082      1081      1087      1083      1081      1087
      1084      1083      1085      1084      1083      1086      1085      1083      1086
      1087      1090      1091      1087      1090      1092      1087      1090      1093
      1088      1087      1089      1088      1087      1090      1089      1087      1090
      1090      1093      1094      1090      1093      1095      1090      1093      1096
      1091      1090      1092      1091      1090      1093      1092      1090      1093
      1093      1096      1097      1093      1096      1098      1093      1096      1102
      1094      1093      1095      1094      1093      1096      1095      1093      1096
      1096      1098      1099      1096      1098      1100      1096      1098      1101
      1096      1102      1103      1096      1102      1104      1096      1102      1105
      1097      1096      1098      1097      1096      1102      1098      1096      1102
      1099      1098      1100      1099      1098      1101      1100      1098      1101
      1103      1102      1104      1103      1102      1105      1104      1102      1105
      1106      1110      1111      1106      1110      1112      1106      1110      1113
      1107      1106      1108      1107      1106      1109      1107      1106      1110
      1108      1106      1109      1108      1106      1110      1109      1106      1110
      1110      1113      1114      1110      1113      1115      1110      1113      1119
      1111      1110      1112      1111      1110      1113      1112      1110      1113
      1113      1119      1116      1114      1113      1115      1114      1113      1119
      1115      1113      1119      1116      1120      1121      1117      1116      1118
      1117      1116      1119      1117      1116      1120      1118      1116      1119
      1118      1116      1120      1119      1116      1120      1120      1121      1122
      1120      1121      1123      1120      1121      1124      1121      1124      1125
      1121      1124      1126      1121      1124      1132      1122      1121      1123
      1122      1121      1124      1123      1121      1124      1124      1126      1127
      1124      1132      1133      1124      1132      1134      1124      1132      1135
      1125      1124      1126      1125      1124      1132      1126      1124      1132
      1126      1127      1128      1126      1127      1129      1127      1129      1130
      1127      1129      1131      1127      1129      1141      1128      1127      1129
      1129      1141      1142      1129      1141      1143      1129      1141      1144
      1130      1129      1131      1130      1129      1141      1131      1129      1141
      1132      1135      1136      1133      1132      1134      1133      1132      1135
      1134      1132      1135      1135      1136      1137      1135      1136      1138
      1136      1138      1139      1136      1138      1140      1136      1138      1188
      1137      1136      1138      1138      1188      1189      1138      1188      1190
      1138      1188      1191      1139      1138      1140      1139      1138      1188
      1140      1138      1188      1141      1144      1145      1141      1144      1146
      1141      1144      1147      1142      1141      1143      1142      1141      1144
      1143      1141      1144      1144      1147      1148      1144      1147      1149
      1144      1147      1150      1145      1144      1146      1145      1144      1147
      1146      1144      1147      1147      1150      1151      1147      1150      1152
      1147      1150      1153      1148      1147      1149      1148      1147      1150
      1149      1147      1150      1150      1153      1154      1150      1153      1155
      1150      1153      1156      1151      1150      1152      1151      1150      1153
      1152      1150      1153      1153      1156      1157      1153      1156      1158
      1153      1156      1159      1154      1153      1155      1154      1153      1156
      1155      1153      1156      1156      1159      1160      1156      1159      1161
      1157      1156      1158      1157      1156      1159      1158      1156      1159
      1159      1161      1162      1159      1161      1163      1160      1159      1161
      1161      1163      1164      1161      1163      1165      1161      1163      1166
      1162      1161      1163      1163      1166      1167      1163      1166      1168
      1163      1166      1169      1164      1163      1165      1164      1163      1166
      1165      1163      1166      1166      1169      1170      1166      1169      1171
      1166      1169      1172      1167      1166      1168      1167      1166      1169
      1168      1166      1169      1169      1172      1173      1169      1172      1174
      1169      1172      1175      1170      1169      1171      1170      1169      1172
      1171      1169      1172      1172      1175      1176      1172      1175      1177
      1172      1175      1178      1173      1172      1174      1173      1172      1175
      1174      1172      1175      1175      1178      1179      1175      1178      1180
      1175      1178      1181      1176      1175      1177      1176      1175      1178
      1177      1175      1178      1178      1181      1182      1178      1181      1183
      1178      1181      1184      1179      1178      1180      1179      1178      1181
      1180      1178      1181      1181      1184      1185      1181      1184      1186
      1181      1184      1187      1182      1181      1183      1182      1181      1184
      1183      1181      1184      1185      1184      1186      1185      1184      1187
      1186      1184      1187      1188      1191      1192      1188      1191      1193
      1188      1191      1194      1189      1188      1190      1189      1188      1191
      1190      1188      1191      1191      1194      1195      1191      1194      1196
      1191      1194      1197      1192      1191      1193      1192      1191      1194
      1193      1191      1194      1194      1197      1198      1194      1197      1199
      1194      1197      1200      1195      1194      1196      1195      1194      1197
      1196      1194      1197      1197      1200      1201      1197      1200      1202
      1197      1200      1203      1198      1197      1199      1198      1197      1200
      1199      1197      1200      1200      1203      1204      1200      1203      1205
      1200      1203      1206      1201      1200      1202      1201      1200      1203
      1202      1200      1203      1203      1206      1207      1203      1206      1208
      1203      1206      1209      1204      1203      1205      1204      1203      1206
      1205      1203      1206      1206      1209      1210      1206      1209      1211
      1206      1209      1212      1207      1206      1208      1207      1206      1209
      1208      1206      1209      1209      1212      1213      1209      1212      1214
      1209      1212      1215      1210      1209      1211      1210      1209      1212
      1211      1209      1212      1212      1215      1216      1212      1215      1217
      1212      1215      1218      1213      1212      1214      1213      1212      1215
      1214      1212      1215      1215      1218      1219      1215      1218      1220
      1215      1218      1221      1216      1215      1217      1216      1215      1218
      1217      1215      1218      1218      1221      1222      1218      1221      1223
      1218      1221      1224      1219      1218      1220      1219      1218      1221
      1220      1218      1221      1221      1224      1225      1221      1224      1226
      1221      1224      1227      1222      1221      1223      1222      1221      1224
      1223      1221      1224      1224      1227      1228      1224      1227      1229
      1224      1227      1230      1225      1224      1226      1225      1224      1227
      1226      1224      1227      1227      1230      1231      1227      1230      1232
      1227      1230      1233      1228      1227      1229      1228      1227      1230
      1229      1227      1230      1230      1233      1234      1230      1233      1235
      1230      1233      1236      1231      1230      1232      1231      1230      1233
      1232      1230      1233      1234      1233      1235      1234      1233      1236
      1235      1233      1236      1237      1238      1239      1237      1238      1240
      1237      1238      1241      1237      1242      1243      1237      1242      1244
      1237      1242      1245      1237      1246      1247      1237      1246      1248
      1237      1246      1249      1237      1250      1251      1237      1250      1252
      1237      1250      1253      1238      1237      1242      1238      1237      1246
      1238      1237      1250      1239      1238      1240      1239      1238      1241
      1240      1238      1241      1242      1237      1246      1242      1237      1250
      1243      1242      1244      1243      1242      1245      1244      1242      1245
      1246      1237      1250      1247      1246      1248      1247      1246      1249
      1248      1246      1249      1250      1253      1254      1250      1253      1255
      1250      1253      1260      1251      1250      1252      1251      1250      1253
      1252      1250      1253      1253      1260      1256      1254      1253      1255
      1254      1253      1260      1255      1253      1260      1256      1259      1261
      1257      1256      1258      1257      1256      1259      1257      1256      1260
      1258      1256      1259      1258      1256      1260      1259      1256      1260
      1259      1261      1262      1259      1261      1263      1259      1261      1266
      1261      1266      1264      1261      1266      1267      1261      1266      1268
      1262      1261      1263      1262      1261      1266      1263      1261      1266
      1264      1266      1267      1264      1266      1268      1264      1316      1317
      1264      1316      1318      1265      1264      1266      1265      1264      1316
      1266      1264      1316      1266      1268      1269      1266      1268      1270
      1266      1268      1272      1267      1266      1268      1268      1270      1271
      1268      1272      1273      1268      1272      1274      1269      1268      1270
      1269      1268      1272      1270      1268      1272      1272      1274      1275
      1272      1274      1276      1273      1272      1274      1274      1276      1277
      1274      1276      1278      1274      1276      1279      1275      1274      1276
      1276      1279      1280      1276      1279      1281      1276      1279      1282
      1277      1276      1278      1277      1276      1279      1278      1276      1279
      1279      1282      1283      1279      1282      1284      1279      1282      1285
      1280      1279      1281      1280      1279      1282      1281      1279      1282
      1282      1285      1286      1282      1285      1287      1282      1285      1288
      1283      1282      1284      1283      1282      1285      1284      1282      1285
      1285      1288      1289      1285      1288      1290      1285      1288      1291
      1286      1285      1287      1286      1285      1288      1287      1285      1288
      1288      1291      1292      1288      1291      1293      1288      1291      1294
      1289      1288      1290      1289      1288      1291      1290      1288      1291
      1291      1294      1295      1291      1294      1296      1291      1294      1297
      1292      1291      1293      1292      1291      1294      1293      1291      1294
      1294      1297      1298      1294      1297      1299      1294      1297      1300
      1295      1294      1296      1295      1294      1297      1296      1294      1297
      1297      1300      1301      1297      1300      1302      1297      1300      1303
      1298      1297      1299      1298      1297      1300      1299      1297      1300
      1300      1303      1304      1300      1303      1305      1300      1303      1306
      1301      1300      1302      1301      1300      1303      1302      1300      1303
      1303      1306      1307      1303      1306      1308      1303      1306      1309
      1304      1303      1305      1304      1303      1306      1305      1303      1306
      1306      1309      1310      1306      1309      1311      1306      1309      1312
      1307      1306      1308      1307      1306      1309      1308      1306      1309
      1309      1312      1313      1309      1312      1314      1309      1312      1315
      1310      1309      1311      1310      1309      1312      1311      1309      1312
      1313      1312      1314      1313      1312      1315      1314      1312      1315
      1316      1318      1319      1316      1318      1320      1316      1318      1321
      1317      1316      1318      1318      1321      1322      1318      1321      1323
      1318      1321      1324      1319      1318      1320      1319      1318      1321
      1320      1318      1321      1321      1324      1325      1321      1324      1326
      1321      1324      1327      1322      1321      1323      1322      1321      1324
      1323      1321      1324      1324      1327      1328      1324      1327      1329
      1324      1327      1330      1325      1324      1326      1325      1324      1327
      1326      1324      1327      1327      1330      1331      1327      1330      1332
      1327      1330      1333      1328      1327      1329      1328      1327      1330
      1329      1327      1330      1330      1333      1334      1330      1333      1335
      1330      1333      1336      1331      1330      1332      1331      1330      1333
      1332      1330      1333      1333      1336      1337      1333      1336      1338
      1333      1336      1339      1334      1333      1335      1334      1333      1336
      1335      1333      1336      1336      1339      1340      1336      1339      1341
      1337      1336      1338      1337      1336      1339      1338      1336      1339
      1339      1341      1342      1339      1341      1343      1340      1339      1341
      1341      1343      1344      1341      1343      1345      1341      1343      1346
      1342      1341      1343      1343      1346      1347      1343      1346      1348
      1343      1346      1349      1344      1343      1345      1344      1343      1346
      1345      1343      1346      1346      1349      1350      1346      1349      1351
      1346      1349      1352      1347      1346      1348      1347      1346      1349
      1348      1346      1349      1349      1352      1353      1349      1352      1354
      1349      1352      1355      1350      1349      1351      1350      1349      1352
      1351      1349      1352      1352      1355      1356      1352      1355      1357
      1352      1355      1358      1353      1352      1354      1353      1352      1355
      1354      1352      1355      1355      1358      1359      1355      1358      1360
      1355      1358      1361      1356      1355      1357      1356      1355      1358
      1357      1355      1358      1358      1361      1362      1358      1361      1363
      1358      1361      1364      1359      1358      1360      1359      1358      1361
      1360      1358      1361      1361      1364      1365      1361      1364      1366
      1361      1364      1367      1362      1361      1363      1362      1361      1364
      1363      1361      1364      1365      1364      1366      1365      1364      1367
      1366      1364      1367      1368      1369      1370      1368      1369      1371
      1368      1369      1384      1368      1372      1373      1368      1372      1374
      1368      1372      1375      1368      1376      1377      1368      1376      1378
      1368      1376      1379      1368      1380      1381      1368      1380      1382
      1368      1380      1383      1369      1368      1372      1369      1368      1376
      1369      1368      1380      1369      1384      1385      1369      1384      1386
      1369      1384      1390      1370      1369      1371      1370      1369      1384
      1371      1369      1384      1372      1368      1376      1372      1368      1380
      1373      1372      1374      1373      1372      1375      1374      1372      1375
      1376      1368      1380      1377      1376      1378      1377      1376      1379
      1378      1376      1379      1381      1380      1382      1381      1380      1383
      1382      1380      1383      1384      1390      1387      1385      1384      1386
      1385      1384      1390      1386      1384      1390      1387      1391      1392
      1388      1387      1389      1388      1387      1390      1388      1387      1391
      1389      1387      1390      1389      1387      1391      1390      1387      1391
      1391      1392      1393      1391      1392      1394      1391      1392      1395
      1392      1395      1396      1392      1395      1397      1392      1395      1403
      1393      1392      1394      1393      1392      1395      1394      1392      1395
      1395      1397      1398      1395      1403      1404      1395      1403      1405
      1395      1403      1406      1396      1395      1397      1396      1395      1403
      1397      1395      1403      1397      1398      1399      1397      1398      1400
      1398      1400      1401      1398      1400      1402      1398      1400      1412
      1399      1398      1400      1400      1412      1413      1400      1412      1414
      1400      1412      1415      1401      1400      1402      1401      1400      1412
      1402      1400      1412      1403      1406      1407      1404      1403      1405
      1404      1403      1406      1405      1403      1406      1406      1407      1408
      1406      1407      1409      1407      1409      1410      1407      1409      1411
      1407      1409      1459      1408      1407      1409      1409      1459      1460
      1409      1459      1461      1409      1459      1462      1410      1409      1411
      1410      1409      1459      1411      1409      1459      1412      1415      1416
      1412      1415      1417      1412      1415      1418      1413      1412      1414
      1413      1412      1415      1414      1412      1415      1415      1418      1419
      1415      1418      1420      1415      1418      1421      1416      1415      1417
      1416      1415      1418      1417      1415      1418      1418      1421      1422
      1418      1421      1423      1418      1421      1424      1419      1418      1420
      1419      1418      1421      1420      1418      1421      1421      1424      1425
      1421      1424      1426      1421      1424      1427      1422      1421      1423
      1422      1421      1424      1423      1421      1424      1424      1427      1428
      1424      1427      1429      1424      1427      1430      1425      1424      1426
      1425      1424      1427      1426      1424      1427      1427      1430      1431
      1427      1430      1432      1428      1427      1429      1428      1427      1430
      1429      1427      1430      1430      1432      1433      1430      1432      1434
      1431      1430      1432      1432      1434      1435      1432      1434      1436
      1432      1434      1437      1433      1432      1434      1434      1437      1438
      1434      1437      1439      1434      1437      1440      1435      1434      1436
      1435      1434      1437      1436      1434      1437      1437      1440      1441
      1437      1440      1442      1437      1440      1443      1438      1437      1439
      1438      1437      1440      1439      1437      1440      1440      1443      1444
      1440      1443      1445      1440      1443      1446      1441      1440      1442
      1441      1440      1443      1442      1440      1443      1443      1446      1447
      1443      1446      1448      1443      1446      1449      1444      1443      1445
      1444      1443      1446      1445      1443      1446      1446      1449      1450
      1446      1449      1451      1446      1449      1452      1447      1446      1448
      1447      1446      1449      1448      1446      1449      1449      1452      1453
      1449      1452      1454      1449      1452      1455      1450      1449      1451
      1450      1449      1452      1451      1449      1452      1452      1455      1456
      1452      1455      1457      1452      1455      1458      1453      1452      1454
      1453      1452      1455      1454      1452      1455      1456      1455      1457
      1456      1455      1458      1457      1455      1458      1459      1462      1463
      1459      1462      1464      1459      1462      1465      1460      1459      1461
      1460      1459      1462      1461      1459      1462      1462      1465      1466
      1462      1465      1467      1462      1465      1468      1463      1462      1464
      1463      1462      1465      1464      1462      1465      1465      1468      1469
      1465      1468      1470      1465      1468      1471      1466      1465      1467
      1466      1465      1468      1467      1465      1468      1468      1471      1472
      1468      1471      1473      1468      1471      1474      1469      1468      1470
      1469      1468      1471      1470      1468      1471      1471      1474      1475
      1471      1474      1476      1471      1474      1477      1472      1471      1473
      1472      1471      1474      1473      1471      1474      1474      1477      1478
      1474      1477      1479      1474      1477      1480      1475      1474      1476
      1475      1474      1477      1476      1474      1477      1477      1480      1481
      1477      1480      1482      1477      1480      1483      1478      1477      1479
      1478      1477      1480      1479      1477      1480      1480      1483      1484
      1480      1483      1485      1480      1483      1486      1481      1480      1482
      1481      1480      1483      1482      1480      1483      1483      1486      1487
      1483      1486      1488      1483      1486      1489      1484      1483      1485
      1484      1483      1486      1485      1483      1486      1486      1489      1490
      1486      1489      1491      1486      1489      1492      1487      1486      1488
      1487      1486      1489      1488      1486      1489      1489      1492      1493
      1489      1492      1494      1489      1492      1495      1490      1489      1491
      1490      1489      1492      1491      1489      1492      1492      1495      1496
      1492      1495      1497      1492      1495      1498      1493      1492      1494
      1493      1492      1495      1494      1492      1495      1495      1498      1499
      1495      1498      1500      1495      1498      1501      1496      1495      1497
      1496      1495      1498      1497      1495      1498      1499      1498      1500
      1499      1498      1501      1500      1498      1501      1502      1504      1505
      1502      1506      1507      1502      1506      1508      1502      1506      1509
      1502      1548      1545      1502      1548      1549      1502      1548      1550
      1503      1502      1504      1503      1502      1506      1503      1502      1548
      1504      1502      1506      1504      1502      1548      1506      1502      1548
      1506      1509      1510      1506      1509      1540      1507      1506      1508
      1507      1506      1509      1508      1506      1509      1509      1510      1511
      1509      1510      1512      1509      1540      1538      1509      1540      1541
      1509      1540      1545      1510      1509      1540      1510      1512      1513
      1510      1512      1514      1510      1512      1515      1511      1510      1512
      1512      1515      1516      1512      1515      1517      1512      1515      1538
      1513      1512      1514      1513      1512      1515      1514      1512      1515
      1515      1517      1518      1515      1517      1519      1515      1517      1527
      1515      1538      1535      1515      1538      1539      1515      1538      1540
      1516      1515      1517      1516      1515      1538      1517      1515      1538
      1517      1519      1520      1517      1519      1521      1517      1519      1522
      1517      1527      1525      1517      1527      1528      1517      1527      1532
      1518      1517      1519      1518      1517      1527      1519      1517      1527
      1519      1522      1523      1519      1522      1524      1519      1522      1525
      1520      1519      1521      1520      1519      1522      1521      1519      1522
      1522      1525      1526      1522      1525      1527      1522      1525      1551
      1523      1522      1524      1523      1522      1525      1524      1522      1525
      1525      1527      1528      1525      1527      1532      1525      1551      1552
      1525      1551      1553      1525      1551      1557      1526      1525      1527
      1526      1525      1551      1527      1525      1551      1527      1528      1529
      1527      1528      1530      1527      1528      1531      1527      1532      1533
      1527      1532      1534      1527      1532      1535      1528      1527      1532
      1529      1528      1530      1529      1528      1531      1530      1528      1531
      1532      1535      1536      1532      1535      1537      1532      1535      1538
      1533      1532      1534      1533      1532      1535      1534      1532      1535
      1535      1538      1539      1535      1538      1540      1536      1535      1537
      1536      1535      1538      1537      1535      1538      1538      1540      1541
      1538      1540      1545      1539      1538      1540      1540      1541      1542
      1540      1541      1543      1540      1541      1544      1540      1545      1546
      1540      1545      1547      1540      1545      1548      1541      1540      1545
      1542      1541      1543      1542      1541      1544      1543      1541      1544
      1545      1548      1549      1545      1548      1550      1546      1545      1547
      1546      1545      1548      1547      1545      1548      1549      1548      1550
      1551      1553      1554      1551      1553      1555      1551      1553      1556
      1551      1557      1558      1551      1557      1559      1551      1557      1560
      1552      1551      1553      1552      1551      1557      1553      1551      1557
      1554      1553      1555      1554      1553      1556      1555      1553      1556
      1557      1560      1561      1557      1560      1562      1557      1560      1563
      1558      1557      1559      1558      1557      1560      1559      1557      1560
      1560      1563      1564      1560      1563      1565      1560      1563      1566
      1561      1560      1562      1561      1560      1563      1562      1560      1563
      1563      1566      1567      1563      1566      1568      1563      1566      1572
      1564      1563      1565      1564      1563      1566      1565      1563      1566
      1566      1568      1569      1566      1568      1570      1566      1568      1571
      1566      1572      1573      1566      1572      1574      1566      1572      1575
      1567      1566      1568      1567      1566      1572      1568      1566      1572
      1569      1568      1570      1569      1568      1571      1570      1568      1571
      1573      1572      1574      1573      1572      1575      1574      1572      1575
      1576      1578      1579      1576      1580      1581      1576      1580      1582
      1576      1580      1583      1576      1622      1619      1576      1622      1623
      1576      1622      1624      1577      1576      1578      1577      1576      1580
      1577      1576      1622      1578      1576      1580      1578      1576      1622
      1580      1576      1622      1580      1583      1584      1580      1583      1614
      1581      1580      1582      1581      1580      1583      1582      1580      1583
      1583      1584      1585      1583      1584      1586      1583      1614      1612
      1583      1614      1615      1583      1614      1619      1584      1583      1614
      1584      1586      1587      1584      1586      1588      1584      1586      1589
      1585      1584      1586      1586      1589      1590      1586      1589      1591
      1586      1589      1612      1587      1586      1588      1587      1586      1589
      1588      1586      1589      1589      1591      1592      1589      1591      1593
      1589      1591      1601      1589      1612      1609      1589      1612      1613
      1589      1612      1614      1590      1589      1591      1590      1589      1612
      1591      1589      1612      1591      1593      1594      1591      1593      1595
      1591      1593      1596      1591      1601      1599      1591      1601      1602
      1591      1601      1606      1592      1591      1593      1592      1591      1601
      1593      1591      1601      1593      1596      1597      1593      1596      1598
      1593      1596      1599      1594      1593      1595      1594      1593      1596
      1595      1593      1596      1596      1599      1600      1596      1599      1601
      1596      1599      1625      1597      1596      1598      1597      1596      1599
      1598      1596      1599      1599      1601      1602      1599      1601      1606
      1599      1625      1626      1599      1625      1627      1599      1625      1631
      1600      1599      1601      1600      1599      1625      1601      1599      1625
      1601      1602      1603      1601      1602      1604      1601      1602      1605
      1601      1606      1607      1601      1606      1608      1601      1606      1609
      1602      1601      1606      1603      1602      1604      1603      1602      1605
      1604      1602      1605      1606      1609      1610      1606      1609      1611
      1606      1609      1612      1607      1606      1608      1607      1606      1609
      1608      1606      1609      1609      1612      1613      1609      1612      1614
      1610      1609      1611      1610      1609      1612      1611      1609      1612
      1612      1614      1615      1612      1614      1619      1613      1612      1614
      1614      1615      1616      1614      1615      1617      1614      1615      1618
      1614      1619      1620      1614      1619      1621      1614      1619      1622
      1615      1614      1619      1616      1615      1617      1616      1615      1618
      1617      1615      1618      1619      1622      1623      1619      1622      1624
      1620      1619      1621      1620      1619      1622      1621      1619      1622
      1623      1622      1624      1625      1627      1628      1625      1627      1629
      1625      1627      1630      1625      1631      1632      1625      1631      1633
      1625      1631      1634      1626      1625      1627      1626      1625      1631
      1627      1625      1631      1628      1627      1629      1628      1627      1630
      1629      1627      1630      1631      1634      1635      1631      1634      1636
      1631      1634      1637      1632      1631      1633      1632      1631      1634
      1633      1631      1634      1634      1637      1638      1634      1637      1639
      1634      1637      1640      1635      1634      1636      1635      1634      1637
      1636      1634      1637      1637      1640      1641      1637      1640      1642
      1637      1640      1646      1638      1637      1639      1638      1637      1640
      1639      1637      1640      1640      1642      1643      1640      1642      1644
      1640      1642      1645      1640      1646      1647      1640      1646      1648
      1640      1646      1649      1641      1640      1642      1641      1640      1646
      1642      1640      1646      1643      1642      1644      1643      1642      1645
      1644      1642      1645      1647      1646      1648      1647      1646      1649
      1648      1646      1649      1650      1652      1653      1650      1654      1655
      1650      1654      1656      1650      1654      1657      1650      1696      1693
      1650      1696      1697      1650      1696      1698      1651      1650      1652
      1651      1650      1654      1651      1650      1696      1652      1650      1654
      1652      1650      1696      1654      1650      1696      1654      1657      1658
      1654      1657      1688      1655      1654      1656      1655      1654      1657
      1656      1654      1657      1657      1658      1659      1657      1658      1660
      1657      1688      1686      1657      1688      1689      1657      1688      1693
      1658      1657      1688      1658      1660      1661      1658      1660      1662
      1658      1660      1663      1659      1658      1660      1660      1663      1664
      1660      1663      1665      1660      1663      1686      1661      1660      1662
      1661      1660      1663      1662      1660      1663      1663      1665      1666
      1663      1665      1667      1663      1665      1675      1663      1686      1683
      1663      1686      1687      1663      1686      1688      1664      1663      1665
      1664      1663      1686      1665      1663      1686      1665      1667      1668
      1665      1667      1669      1665      1667      1670      1665      1675      1673
      1665      1675      1676      1665      1675      1680      1666      1665      1667
      1666      1665      1675      1667      1665      1675      1667      1670      1671
      1667      1670      1672      1667      1670      1673      1668      1667      1669
      1668      1667      1670      1669      1667      1670      1670      1673      1674
      1670      1673      1675      1670      1673      1699      1671      1670      1672
      1671      1670      1673      1672      1670      1673      1673      1675      1676
      1673      1675      1680      1673      1699      1700      1673      1699      1701
      1673      1699      1705      1674      1673      1675      1674      1673      1699
      1675      1673      1699      1675      1676      1677      1675      1676      1678
      1675      1676      1679      1675      1680      1681      1675      1680      1682
      1675      1680      1683      1676      1675      1680      1677      1676      1678
      1677      1676      1679      1678      1676      1679      1680      1683      1684
      1680      1683      1685      1680      1683      1686      1681      1680      1682
      1681      1680      1683      1682      1680      1683      1683      1686      1687
      1683      1686      1688      1684      1683      1685      1684      1683      1686
      1685      1683      1686      1686      1688      1689      1686      1688      1693
      1687      1686      1688      1688      1689      1690      1688      1689      1691
      1688      1689      1692      1688      1693      1694      1688      1693      1695
      1688      1693      1696      1689      1688      1693      1690      1689      1691
      1690      1689      1692      1691      1689      1692      1693      1696      1697
      1693      1696      1698      1694      1693      1695      1694      1693      1696
      1695      1693      1696      1697      1696      1698      1699      1701      1702
      1699      1701      1703      1699      1701      1704      1699      1705      1706
      1699      1705      1707      1699      1705      1708      1700      1699      1701
      1700      1699      1705      1701      1699      1705      1702      1701      1703
      1702      1701      1704      1703      1701      1704      1705      1708      1709
      1705      1708      1710      1705      1708      1711      1706      1705      1707
      1706      1705      1708      1707      1705      1708      1708      1711      1712
      1708      1711      1713      1708      1711      1714      1709      1708      1710
      1709      1708      1711      1710      1708      1711      1711      1714      1715
      1711      1714      1716      1711      1714      1720      1712      1711      1713
      1712      1711      1714      1713      1711      1714      1714      1716      1717
      1714      1716      1718      1714      1716      1719      1714      1720      1721
      1714      1720      1722      1714      1720      1723      1715      1714      1716
      1715      1714      1720      1716      1714      1720      1717      1716      1718
      1717      1716      1719      1718      1716      1719      1721      1720      1722
      1721      1720      1723      1722      1720      1723      1724      1728      1729
      1724      1728      1730      1724      1728      1733      1725      1724      1726
      1725      1724      1727      1725      1724      1728      1726      1724      1727
      1726      1724      1728      1727      1724      1728      1728      1730      1731
      1728      1730      1732      1728      1733      1734      1728      1733      1735
      1728      1733      1739      1729      1728      1730      1729      1728      1733
      1730      1728      1733      1731      1730      1732      1733      1739      1736
      1734      1733      1735      1734      1733      1739      1735      1733      1739
      1736      1740      1741      1737      1736      1738      1737      1736      1739
      1737      1736      1740      1738      1736      1739      1738      1736      1740
      1739      1736      1740      1740      1741      1742      1740      1741      1743
      1740      1741      1744      1741      1744      1745      1741      1744      1746
      1741      1744      1752      1742      1741      1743      1742      1741      1744
      1743      1741      1744      1744      1746      1747      1744      1752      1753
      1744      1752      1754      1744      1752      1755      1745      1744      1746
      1745      1744      1752      1746      1744      1752      1746      1747      1748
      1746      1747      1749      1747      1749      1750      1747      1749      1751
      1747      1749      1761      1748      1747      1749      1749      1761      1762
      1749      1761      1763      1749      1761      1764      1750      1749      1751
      1750      1749      1761      1751      1749      1761      1752      1755      1756
      1753      1752      1754      1753      1752      1755      1754      1752      1755
      1755      1756      1757      1755      1756      1758      1756      1758      1759
      1756      1758      1760      1756      1758      1808      1757      1756      1758
      1758      1808      1809      1758      1808      1810      1758      1808      1811
      1759      1758      1760      1759      1758      1808      1760      1758      1808
      1761      1764      1765      1761      1764      1766      1761      1764      1767
      1762      1761      1763      1762      1761      1764      1763      1761      1764
      1764      1767      1768      1764      1767      1769      1765      1764      1766
      1765      1764      1767      1766      1764      1767      1767      1769      1770
      1767      1769      1771      1768      1767      1769      1769      1771      1772
      1769      1771      1773      1769      1771      1774      1770      1769      1771
      1771      1774      1775      1771      1774      1776      1772      1771      1773
      1772      1771      1774      1773      1771      1774      1774      1776      1777
      1774      1776      1778      1775      1774      1776      1776      1778      1779
      1776      1778      1780      1776      1778      1781      1777      1776      1778
      1778      1781      1782      1778      1781      1783      1779      1778      1780
      1779      1778      1781      1780      1778      1781      1781      1783      1784
      1781      1783      1785      1782      1781      1783      1783      1785      1786
      1783      1785      1787      1783      1785      1788      1784      1783      1785
      1785      1788      1789      1785      1788      1790      1786      1785      1787
      1786      1785      1788      1787      1785      1788      1788      1790      1791
      1788      1790      1792      1789      1788      1790      1790      1792      1793
      1790      1792      1794      1790      1792      1795      1791      1790      1792
      1792      1795      1796      1792      1795      1797      1792      1795      1798
      1793      1792      1794      1793      1792      1795      1794      1792      1795
      1795      1798      1799      1795      1798      1800      1795      1798      1801
      1796      1795      1797      1796      1795      1798      1797      1795      1798
      1798      1801      1802      1798      1801      1803      1798      1801      1804
      1799      1798      1800      1799      1798      1801      1800      1798      1801
      1801      1804      1805      1801      1804      1806      1801      1804      1807
      1802      1801      1803      1802      1801      1804      1803      1801      1804
      1805      1804      1806      1805      1804      1807      1806      1804      1807
      1808      1811      1812      1808      1811      1813      1808      1811      1814
      1809      1808      1810      1809      1808      1811      1810      1808      1811
      1811      1814      1815      1811      1814      1816      1811      1814      1817
      1812      1811      1813      1812      1811      1814      1813      1811      1814
      1814      1817      1818      1814      1817      1819      1814      1817      1820
      1815      1814      1816      1815      1814      1817      1816      1814      1817
      1817      1820      1821      1817      1820      1822      1817      1820      1823
      1818      1817      1819      1818      1817      1820      1819      1817      1820
      1820      1823      1824      1820      1823      1825      1820      1823      1826
      1821      1820      1822      1821      1820      1823      1822      1820      1823
      1823      1826      1827      1823      1826      1828      1823      1826      1829
      1824      1823      1825      1824      1823      1826      1825      1823      1826
      1826      1829      1830      1826      1829      1831      1826      1829      1832
      1827      1826      1828      1827      1826      1829      1828      1826      1829
      1829      1832      1833      1829      1832      1834      1829      1832      1835
      1830      1829      1831      1830      1829      1832      1831      1829      1832
      1832      1835      1836      1832      1835      1837      1832      1835      1838
      1833      1832      1834      1833      1832      1835      1834      1832      1835
      1835      1838      1839      1835      1838      1840      1835      1838      1841
      1836      1835      1837      1836      1835      1838      1837      1835      1838
      1838      1841      1842      1838      1841      1843      1838      1841      1844
      1839      1838      1840      1839      1838      1841      1840      1838      1841
      1841      1844      1845      1841      1844      1846      1841      1844      1847
      1842      1841      1843      1842      1841      1844      1843      1841      1844
      1844      1847      1848      1844      1847      1849      1844      1847      1850
      1845      1844      1846      1845      1844      1847      1846      1844      1847
      1847      1850      1851      1847      1850      1852      1847      1850      1853
      1848      1847      1849      1848      1847      1850      1849      1847      1850
      1850      1853      1854      1850      1853      1855      1850      1853      1856
      1851      1850      1852      1851      1850      1853      1852      1850      1853
      1854      1853      1855      1854      1853      1856      1855      1853      1856
      1857      1858      1859      1857      1858      1860      1857      1858      1861
      1857      1862      1863      1857      1862      1864      1857      1862      1865
      1857      1866      1867      1857      1866      1868      1857      1866      1869
      1857      1870      1871      1857      1870      1872      1857      1870      1873
      1858      1857      1862      1858      1857      1866      1858      1857      1870
      1859      1858      1860      1859      1858      1861      1860      1858      1861
      1862      1857      1866      1862      1857      1870      1863      1862      1864
      1863      1862      1865      1864      1862      1865      1866      1857      1870
      1867      1866      1868      1867      1866      1869      1868      1866      1869
      1870      1873      1874      1870      1873      1875      1870      1873      1880
      1871      1870      1872      1871      1870      1873      1872      1870      1873
      1873      1880      1876      1874      1873      1875      1874      1873      1880
      1875      1873      1880      1876      1879      1881      1877      1876      1878
      1877      1876      1879      1877      1876      1880      1878      1876      1879
      1878      1876      1880      1879      1876      1880      1879      1881      1882
      1879      1881      1883      1879      1881      1886      1881      1886      1884
      1881      1886      1887      1881      1886      1888      1882      1881      1883
      1882      1881      1886      1883      1881      1886      1884      1886      1887
      1884      1886      1888      1884      1936      1937      1884      1936      1938
      1885      1884      1886      1885      1884      1936      1886      1884      1936
      1886      1888      1889      1886      1888      1890      1886      1888      1892
      1887      1886      1888      1888      1890      1891      1888      1892      1893
      1888      1892      1894      1889      1888      1890      1889      1888      1892
      1890      1888      1892      1892      1894      1895      1892      1894      1896
      1893      1892      1894      1894      1896      1897      1894      1896      1898
      1894      1896      1899      1895      1894      1896      1896      1899      1900
      1896      1899      1901      1896      1899      1902      1897      1896      1898
      1897      1896      1899      1898      1896      1899      1899      1902      1903
      1899      1902      1904      1899      1902      1905      1900      1899      1901
      1900      1899      1902      1901      1899      1902      1902      1905      1906
      1902      1905      1907      1902      1905      1908      1903      1902      1904
      1903      1902      1905      1904      1902      1905      1905      1908      1909
      1905      1908      1910      1905      1908      1911      1906      1905      1907
      1906      1905      1908      1907      1905      1908      1908      1911      1912
      1908      1911      1913      1908      1911      1914      1909      1908      1910
      1909      1908      1911      1910      1908      1911      1911      1914      1915
      1911      1914      1916      1911      1914      1917      1912      1911      1913
      1912      1911      1914      1913      1911      1914      1914      1917      1918
      1914      1917      1919      1914      1917      1920      1915      1914      1916
      1915      1914      1917      1916      1914      1917      1917      1920      1921
      1917      1920      1922      1917      1920      1923      1918      1917      1919
      1918      1917      1920      1919      1917      1920      1920      1923      1924
      1920      1923      1925      1920      1923      1926      1921      1920      1922
      1921      1920      1923      1922      1920      1923      1923      1926      1927
      1923      1926      1928      1923      1926      1929      1924      1923      1925
      1924      1923      1926      1925      1923      1926      1926      1929      1930
      1926      1929      1931      1926      1929      1932      1927      1926      1928
      1927      1926      1929      1928      1926      1929      1929      1932      1933
      1929      1932      1934      1929      1932      1935      1930      1929      1931
      1930      1929      1932      1931      1929      1932      1933      1932      1934
      1933      1932      1935      1934      1932      1935      1936      1938      1939
      1936      1938      1940      1936      1938      1941      1937      1936      1938
      1938      1941      1942      1938      1941      1943      1938      1941      1944
      1939      1938      1940      1939      1938      1941      1940      1938      1941
      1941      1944      1945      1941      1944      1946      1941      1944      1947
      1942      1941      1943      1942      1941      1944      1943      1941      1944
      1944      1947      1948      1944      1947      1949      1944      1947      1950
      1945      1944      1946      1945      1944      1947      1946      1944      1947
      1947      1950      1951      1947      1950      1952      1947      1950      1953
      1948      1947      1949      1948      1947      1950      1949      1947      1950
      1950      1953      1954      1950      1953      1955      1950      1953      1956
      1951      1950      1952      1951      1950      1953      1952      1950      1953
      1953      1956      1957      1953      1956      1958      1953      1956      1959
      1954      1953      1955      1954      1953      1956      1955      1953      1956
      1956      1959      1960      1956      1959      1961      1957      1956      1958
      1957      1956      1959      1958      1956      1959      1959      1961      1962
      1959      1961      1963      1960      1959      1961      1961      1963      1964
      1961      1963      1965      1961      1963      1966      1962      1961      1963
      1963      1966      1967      1963      1966      1968      1963      1966      1969
      1964      1963      1965      1964      1963      1966      1965      1963      1966
      1966      1969      1970      1966      1969      1971      1966      1969      1972
      1967      1966      1968      1967      1966      1969      1968      1966      1969
      1969      1972      1973      1969      1972      1974      1969      1972      1975
      1970      1969      1971      1970      1969      1972      1971      1969      1972
      1972      1975      1976      1972      1975      1977      1972      1975      1978
      1973      1972      1974      1973      1972      1975      1974      1972      1975
      1975      1978      1979      1975      1978      1980      1975      1978      1981
      1976      1975      1977      1976      1975      1978      1977      1975      1978
      1978      1981      1982      1978      1981      1983      1978      1981      1984
      1979      1978      1980      1979      1978      1981      1980      1978      1981
      1981      1984      1985      1981      1984      1986      1981      1984      1987
      1982      1981      1983      1982      1981      1984      1983      1981      1984
      1985      1984      1986      1985      1984      1987      1986      1984      1987
      1988      1990      1991      1988      1992      1993      1988      1992      1994
      1988      1992      1996      1988      2008      2004      1988      2008      2009
      1988      2008      2013      1989      1988      1990      1989      1988      1992
      1989      1988      2008      1990      1988      1992      1990      1988      2008
      1992      1988      2008      1992      1994      1995      1992      1996      1997
      1992      1996      1998      1992      1996      2000      1993      1992      1994
      1993      1992      1996      1994      1992      1996      1996      1998      1999
      1996      2000      2001      1996      2000      2002      1996      2000      2004
      1997      1996      1998      1997      1996      2000      1998      1996      2000
      2000      2002      2003      2000      2004      2005      2000      2004      2006
      2000      2004      2008      2001      2000      2002      2001      2000      2004
      2002      2000      2004      2004      2006      2007      2004      2008      2009
      2004      2008      2013      2005      2004      2006      2005      2004      2008
      2006      2004      2008      2008      2013      2010      2009      2008      2013
      2010      2014      2015      2011      2010      2012      2011      2010      2013
      2011      2010      2014      2012      2010      2013      2012      2010      2014
      2013      2010      2014      2014      2015      2016      2014      2015      2017
      2014      2015      2018      2015      2018      2019      2015      2018      2020
      2015      2018      2026      2016      2015      2017      2016      2015      2018
      2017      2015      2018      2018      2020      2021      2018      2026      2027
      2018      2026      2028      2018      2026      2029      2019      2018      2020
      2019      2018      2026      2020      2018      2026      2020      2021      2022
      2020      2021      2023      2021      2023      2024      2021      2023      2025
      2021      2023      2035      2022      2021      2023      2023      2035      2036
      2023      2035      2037      2023      2035      2038      2024      2023      2025
      2024      2023      2035      2025      2023      2035      2026      2029      2030
      2027      2026      2028      2027      2026      2029      2028      2026      2029
      2029      2030      2031      2029      2030      2032      2030      2032      2033
      2030      2032      2034      2030      2032      2082      2031      2030      2032
      2032      2082      2083      2032      2082      2084      2032      2082      2085
      2033      2032      2034      2033      2032      2082      2034      2032      2082
      2035      2038      2039      2035      2038      2040      2035      2038      2041
      2036      2035      2037      2036      2035      2038      2037      2035      2038
      2038      2041      2042      2038      2041      2043      2039      2038      2040
      2039      2038      2041      2040      2038      2041      2041      2043      2044
      2041      2043      2045      2042      2041      2043      2043      2045      2046
      2043      2045      2047      2043      2045      2048      2044      2043      2045
      2045      2048      2049      2045      2048      2050      2046      2045      2047
      2046      2045      2048      2047      2045      2048      2048      2050      2051
      2048      2050      2052      2049      2048      2050      2050      2052      2053
      2050      2052      2054      2050      2052      2055      2051      2050      2052
      2052      2055      2056      2052      2055      2057      2053      2052      2054
      2053      2052      2055      2054      2052      2055      2055      2057      2058
      2055      2057      2059      2056      2055      2057      2057      2059      2060
      2057      2059      2061      2057      2059      2062      2058      2057      2059
      2059      2062      2063      2059      2062      2064      2060      2059      2061
      2060      2059      2062      2061      2059      2062      2062      2064      2065
      2062      2064      2066      2063      2062      2064      2064      2066      2067
      2064      2066      2068      2064      2066      2069      2065      2064      2066
      2066      2069      2070      2066      2069      2071      2066      2069      2072
      2067      2066      2068      2067      2066      2069      2068      2066      2069
      2069      2072      2073      2069      2072      2074      2069      2072      2075
      2070      2069      2071      2070      2069      2072      2071      2069      2072
      2072      2075      2076      2072      2075      2077      2072      2075      2078
      2073      2072      2074      2073      2072      2075      2074      2072      2075
      2075      2078      2079      2075      2078      2080      2075      2078      2081
      2076      2075      2077      2076      2075      2078      2077      2075      2078
      2079      2078      2080      2079      2078      2081      2080      2078      2081
      2082      2085      2086      2082      2085      2087      2082      2085      2088
      2083      2082      2084      2083      2082      2085      2084      2082      2085
      2085      2088      2089      2085      2088      2090      2085      2088      2091
      2086      2085      2087      2086      2085      2088      2087      2085      2088
      2088      2091      2092      2088      2091      2093      2088      2091      2094
      2089      2088      2090      2089      2088      2091      2090      2088      2091
      2091      2094      2095      2091      2094      2096      2091      2094      2097
      2092      2091      2093      2092      2091      2094      2093      2091      2094
      2094      2097      2098      2094      2097      2099      2094      2097      2100
      2095      2094      2096      2095      2094      2097      2096      2094      2097
      2097      2100      2101      2097      2100      2102      2097      2100      2103
      2098      2097      2099      2098      2097      2100      2099      2097      2100
      2100      2103      2104      2100      2103      2105      2100      2103      2106
      2101      2100      2102      2101      2100      2103      2102      2100      2103
      2103      2106      2107      2103      2106      2108      2103      2106      2109
      2104      2103      2105      2104      2103      2106      2105      2103      2106
      2106      2109      2110      2106      2109      2111      2106      2109      2112
      2107      2106      2108      2107      2106      2109      2108      2106      2109
      2109      2112      2113      2109      2112      2114      2109      2112      2115
      2110      2109      2111      2110      2109      2112      2111      2109      2112
      2112      2115      2116      2112      2115      2117      2112      2115      2118
      2113      2112      2114      2113      2112      2115      2114      2112      2115
      2115      2118      2119      2115      2118      2120      2115      2118      2121
      2116      2115      2117      2116      2115      2118      2117      2115      2118
      2118      2121      2122      2118      2121      2123      2118      2121      2124
      2119      2118      2120      2119      2118      2121      2120      2118      2121
      2121      2124      2125      2121      2124      2126      2121      2124      2127
      2122      2121      2123      2122      2121      2124      2123      2121      2124
      2124      2127      2128      2124      2127      2129      2124      2127      2130
      2125      2124      2126      2125      2124      2127      2126      2124      2127
      2128      2127      2129      2128      2127      2130      2129      2127      2130
      2131      2135      2136      2131      2135      2137      2131      2135      2138
      2132      2131      2133      2132      2131      2134      2132      2131      2135
      2133      2131      2134      2133      2131      2135      2134      2131      2135
      2135      2138      2139      2135      2138      2140      2135      2138      2144
      2136      2135      2137      2136      2135      2138      2137      2135      2138
      2138      2144      2141      2139      2138      2140      2139      2138      2144
      2140      2138      2144      2141      2145      2146      2142      2141      2143
      2142      2141      2144      2142      2141      2145      2143      2141      2144
      2143      2141      2145      2144      2141      2145      2145      2146      2147
      2145      2146      2148      2145      2146      2149      2146      2149      2150
      2146      2149      2151      2146      2149      2157      2147      2146      2148
      2147      2146      2149      2148      2146      2149      2149      2151      2152
      2149      2157      2158      2149      2157      2159      2149      2157      2160
      2150      2149      2151      2150      2149      2157      2151      2149      2157
      2151      2152      2153      2151      2152      2154      2152      2154      2155
      2152      2154      2156      2152      2154      2166      2153      2152      2154
      2154      2166      2167      2154      2166      2168      2154      2166      2169
      2155      2154      2156      2155      2154      2166      2156      2154      2166
      2157      2160      2161      2158      2157      2159      2158      2157      2160
      2159      2157      2160      2160      2161      2162      2160      2161      2163
      2161      2163      2164      2161      2163      2165      2161      2163      2213
      2162      2161      2163      2163      2213      2214      2163      2213      2215
      2163      2213      2216      2164      2163      2165      2164      2163      2213
      2165      2163      2213      2166      2169      2170      2166      2169      2171
      2166      2169      2172      2167      2166      2168      2167      2166      2169
      2168      2166      2169      2169      2172      2173      2169      2172      2174
      2170      2169      2171      2170      2169      2172      2171      2169      2172
      2172      2174      2175      2172      2174      2176      2173      2172      2174
      2174      2176      2177      2174      2176      2178      2174      2176      2179
      2175      2174      2176      2176      2179      2180      2176      2179      2181
      2177      2176      2178      2177      2176      2179      2178      2176      2179
      2179      2181      2182      2179      2181      2183      2180      2179      2181
      2181      2183      2184      2181      2183      2185      2181      2183      2186
      2182      2181      2183      2183      2186      2187      2183      2186      2188
      2184      2183      2185      2184      2183      2186      2185      2183      2186
      2186      2188      2189      2186      2188      2190      2187      2186      2188
      2188      2190      2191      2188      2190      2192      2188      2190      2193
      2189      2188      2190      2190      2193      2194      2190      2193      2195
      2191      2190      2192      2191      2190      2193      2192      2190      2193
      2193      2195      2196      2193      2195      2197      2194      2193      2195
      2195      2197      2198      2195      2197      2199      2195      2197      2200
      2196      2195      2197      2197      2200      2201      2197      2200      2202
      2197      2200      2203      2198      2197      2199      2198      2197      2200
      2199      2197      2200      2200      2203      2204      2200      2203      2205
      2200      2203      2206      2201      2200      2202      2201      2200      2203
      2202      2200      2203      2203      2206      2207      2203      2206      2208
      2203      2206      2209      2204      2203      2205      2204      2203      2206
      2205      2203      2206      2206      2209      2210      2206      2209      2211
      2206      2209      2212      2207      2206      2208      2207      2206      2209
      2208      2206      2209      2210      2209      2211      2210      2209      2212
      2211      2209      2212      2213      2216      2217      2213      2216      2218
      2213      2216      2219      2214      2213      2215      2214      2213      2216
      2215      2213      2216      2216      2219      2220      2216      2219      2221
      2216      2219      2222      2217      2216      2218      2217      2216      2219
      2218      2216      2219      2219      2222      2223      2219      2222      2224
      2219      2222      2225      2220      2219      2221      2220      2219      2222
      2221      2219      2222      2222      2225      2226      2222      2225      2227
      2222      2225      2228      2223      2222      2224      2223      2222      2225
      2224      2222      2225      2225      2228      2229      2225      2228      2230
      2225      2228      2231      2226      2225      2227      2226      2225      2228
      2227      2225      2228      2228      2231      2232      2228      2231      2233
      2228      2231      2234      2229      2228      2230      2229      2228      2231
      2230      2228      2231      2231      2234      2235      2231      2234      2236
      2231      2234      2237      2232      2231      2233      2232      2231      2234
      2233      2231      2234      2234      2237      2238      2234      2237      2239
      2234      2237      2240      2235      2234      2236      2235      2234      2237
      2236      2234      2237      2237      2240      2241      2237      2240      2242
      2237      2240      2243      2238      2237      2239      2238      2237      2240
      2239      2237      2240      2240      2243      2244      2240      2243      2245
      2240      2243      2246      2241      2240      2242      2241      2240      2243
      2242      2240      2243      2243      2246      2247      2243      2246      2248
      2243      2246      2249      2244      2243      2245      2244      2243      2246
      2245      2243      2246      2246      2249      2250      2246      2249      2251
      2246      2249      2252      2247      2246      2248      2247      2246      2249
      2248      2246      2249      2249      2252      2253      2249      2252      2254
      2249      2252      2255      2250      2249      2251      2250      2249      2252
      2251      2249      2252      2252      2255      2256      2252      2255      2257
      2252      2255      2258      2253      2252      2254      2253      2252      2255
      2254      2252      2255      2255      2258      2259      2255      2258      2260
      2255      2258      2261      2256      2255      2257      2256      2255      2258
      2257      2255      2258      2259      2258      2260      2259      2258      2261
      2260      2258      2261      2262      2264      2265      2262      2266      2267
      2262      2266      2268      2262      2266      2269      2262      2308      2305
      2262      2308      2309      2262      2308      2310      2263      2262      2264
      2263      2262      2266      2263      2262      2308      2264      2262      2266
      2264      2262      2308      2266      2262      2308      2266      2269      2270
      2266      2269      2300      2267      2266      2268      2267      2266      2269
      2268      2266      2269      2269      2270      2271      2269      2270      2272
      2269      2300      2298      2269      2300      2301      2269      2300      2305
      2270      2269      2300      2270      2272      2273      2270      2272      2274
      2270      2272      2275      2271      2270      2272      2272      2275      2276
      2272      2275      2277      2272      2275      2298      2273      2272      2274
      2273      2272      2275      2274      2272      2275      2275      2277      2278
      2275      2277      2279      2275      2277      2287      2275      2298      2295
      2275      2298      2299      2275      2298      2300      2276      2275      2277
      2276      2275      2298      2277      2275      2298      2277      2279      2280
      2277      2279      2281      2277      2279      2282      2277      2287      2285
      2277      2287      2288      2277      2287      2292      2278      2277      2279
      2278      2277      2287      2279      2277      2287      2279      2282      2283
      2279      2282      2284      2279      2282      2285      2280      2279      2281
      2280      2279      2282      2281      2279      2282      2282      2285      2286
      2282      2285      2287      2282      2285      2311      2283      2282      2284
      2283      2282      2285      2284      2282      2285      2285      2287      2288
      2285      2287      2292      2285      2311      2312      2285      2311      2313
      2285      2311      2317      2286      2285      2287      2286      2285      2311
      2287      2285      2311      2287      2288      2289      2287      2288      2290
      2287      2288      2291      2287      2292      2293      2287      2292      2294
      2287      2292      2295      2288      2287      2292      2289      2288      2290
      2289      2288      2291      2290      2288      2291      2292      2295      2296
      2292      2295      2297      2292      2295      2298      2293      2292      2294
      2293      2292      2295      2294      2292      2295      2295      2298      2299
      2295      2298      2300      2296      2295      2297      2296      2295      2298
      2297      2295      2298      2298      2300      2301      2298      2300      2305
      2299      2298      2300      2300      2301      2302      2300      2301      2303
      2300      2301      2304      2300      2305      2306      2300      2305      2307
      2300      2305      2308      2301      2300      2305      2302      2301      2303
      2302      2301      2304      2303      2301      2304      2305      2308      2309
      2305      2308      2310      2306      2305      2307      2306      2305      2308
      2307      2305      2308      2309      2308      2310      2311      2313      2314
      2311      2313      2315      2311      2313      2316      2311      2317      2318
      2311      2317      2319      2311      2317      2320      2312      2311      2313
      2312      2311      2317      2313      2311      2317      2314      2313      2315
      2314      2313      2316      2315      2313      2316      2317      2320      2321
      2317      2320      2322      2317      2320      2323      2318      2317      2319
      2318      2317      2320      2319      2317      2320      2320      2323      2324
      2320      2323      2325      2320      2323      2326      2321      2320      2322
      2321      2320      2323      2322      2320      2323      2323      2326      2327
      2323      2326      2328      2323      2326      2332      2324      2323      2325
      2324      2323      2326      2325      2323      2326      2326      2328      2329
      2326      2328      2330      2326      2328      2331      2326      2332      2333
      2326      2332      2334      2326      2332      2335      2327      2326      2328
      2327      2326      2332      2328      2326      2332      2329      2328      2330
      2329      2328      2331      2330      2328      2331      2333      2332      2334
      2333      2332      2335      2334      2332      2335      2336      2340      2341
      2336      2340      2342      2336      2340      2343      2337      2336      2338
      2337      2336      2339      2337      2336      2340      2338      2336      2339
      2338      2336      2340      2339      2336      2340      2340      2343      2344
      2340      2343      2345      2340      2343      2349      2341      2340      2342
      2341      2340      2343      2342      2340      2343      2343      2349      2346
      2344      2343      2345      2344      2343      2349      2345      2343      2349
      2346      2350      2351      2347      2346      2348      2347      2346      2349
      2347      2346      2350      2348      2346      2349      2348      2346      2350
      2349      2346      2350      2350      2351      2352      2350      2351      2353
      2350      2351      2354      2351      2354      2355      2351      2354      2356
      2351      2354      2362      2352      2351      2353      2352      2351      2354
      2353      2351      2354      2354      2356      2357      2354      2362      2363
      2354      2362      2364      2354      2362      2365      2355      2354      2356
      2355      2354      2362      2356      2354      2362      2356      2357      2358
      2356      2357      2359      2357      2359      2360      2357      2359      2361
      2357      2359      2371      2358      2357      2359      2359      2371      2372
      2359      2371      2373      2359      2371      2374      2360      2359      2361
      2360      2359      2371      2361      2359      2371      2362      2365      2366
      2363      2362      2364      2363      2362      2365      2364      2362      2365
      2365      2366      2367      2365      2366      2368      2366      2368      2369
      2366      2368      2370      2366      2368      2418      2367      2366      2368
      2368      2418      2419      2368      2418      2420      2368      2418      2421
      2369      2368      2370      2369      2368      2418      2370      2368      2418
      2371      2374      2375      2371      2374      2376      2371      2374      2377
      2372      2371      2373      2372      2371      2374      2373      2371      2374
      2374      2377      2378      2374      2377      2379      2375      2374      2376
      2375      2374      2377      2376      2374      2377      2377      2379      2380
      2377      2379      2381      2378      2377      2379      2379      2381      2382
      2379      2381      2383      2379      2381      2384      2380      2379      2381
      2381      2384      2385      2381      2384      2386      2382      2381      2383
      2382      2381      2384      2383      2381      2384      2384      2386      2387
      2384      2386      2388      2385      2384      2386      2386      2388      2389
      2386      2388      2390      2386      2388      2391      2387      2386      2388
      2388      2391      2392      2388      2391      2393      2389      2388      2390
      2389      2388      2391      2390      2388      2391      2391      2393      2394
      2391      2393      2395      2392      2391      2393      2393      2395      2396
      2393      2395      2397      2393      2395      2398      2394      2393      2395
      2395      2398      2399      2395      2398      2400      2396      2395      2397
      2396      2395      2398      2397      2395      2398      2398      2400      2401
      2398      2400      2402      2399      2398      2400      2400      2402      2403
      2400      2402      2404      2400      2402      2405      2401      2400      2402
      2402      2405      2406      2402      2405      2407      2402      2405      2408
      2403      2402      2404      2403      2402      2405      2404      2402      2405
      2405      2408      2409      2405      2408      2410      2405      2408      2411
      2406      2405      2407      2406      2405      2408      2407      2405      2408
      2408      2411      2412      2408      2411      2413      2408      2411      2414
      2409      2408      2410      2409      2408      2411      2410      2408      2411
      2411      2414      2415      2411      2414      2416      2411      2414      2417
      2412      2411      2413      2412      2411      2414      2413      2411      2414
      2415      2414      2416      2415      2414      2417      2416      2414      2417
      2418      2421      2422      2418      2421      2423      2418      2421      2424
      2419      2418      2420      2419      2418      2421      2420      2418      2421
      2421      2424      2425      2421      2424      2426      2421      2424      2427
      2422      2421      2423      2422      2421      2424      2423      2421      2424
      2424      2427      2428      2424      2427      2429      2424      2427      2430
      2425      2424      2426      2425      2424      2427      2426      2424      2427
      2427      2430      2431      2427      2430      2432      2427      2430      2433
      2428      2427      2429      2428      2427      2430      2429      2427      2430
      2430      2433      2434      2430      2433      2435      2430      2433      2436
      2431      2430      2432      2431      2430      2433      2432      2430      2433
      2433      2436      2437      2433      2436      2438      2433      2436      2439
      2434      2433      2435      2434      2433      2436      2435      2433      2436
      2436      2439      2440      2436      2439      2441      2436      2439      2442
      2437      2436      2438      2437      2436      2439      2438      2436      2439
      2439      2442      2443      2439      2442      2444      2439      2442      2445
      2440      2439      2441      2440      2439      2442      2441      2439      2442
      2442      2445      2446      2442      2445      2447      2442      2445      2448
      2443      2442      2444      2443      2442      2445      2444      2442      2445
      2445      2448      2449      2445      2448      2450      2445      2448      2451
      2446      2445      2447      2446      2445      2448      2447      2445      2448
      2448      2451      2452      2448      2451      2453      2448      2451      2454
      2449      2448      2450      2449      2448      2451      2450      2448      2451
      2451      2454      2455      2451      2454      2456      2451      2454      2457
      2452      2451      2453      2452      2451      2454      2453      2451      2454
      2454      2457      2458      2454      2457      2459      2454      2457      2460
      2455      2454      2456      2455      2454      2457      2456      2454      2457
      2457      2460      2461      2457      2460      2462      2457      2460      2463
      2458      2457      2459      2458      2457      2460      2459      2457      2460
      2460      2463      2464      2460      2463      2465      2460      2463      2466
      2461      2460      2462      2461      2460      2463      2462      2460      2463
      2464      2463      2465      2464      2463      2466      2465      2463      2466
      2467      2468      2469      2467      2468      2470      2467      2468      2471
      2467      2472      2473      2467      2472      2474      2467      2472      2475
      2467      2476      2477      2467      2476      2478      2467      2476      2479
      2467      2480      2481      2467      2480      2482      2467      2480      2483
      2468      2467      2472      2468      2467      2476      2468      2467      2480
      2469      2468      2470      2469      2468      2471      2470      2468      2471
      2472      2467      2476      2472      2467      2480      2473      2472      2474
      2473      2472      2475      2474      2472      2475      2476      2467      2480
      2477      2476      2478      2477      2476      2479      2478      2476      2479
      2480      2483      2484      2480      2483      2485      2480      2483      2489
      2481      2480      2482      2481      2480      2483      2482      2480      2483
      2483      2489      2486      2484      2483      2485      2484      2483      2489
      2485      2483      2489      2486      2490      2491      2487      2486      2488
      2487      2486      2489      2487      2486      2490      2488      2486      2489
      2488      2486      2490      2489      2486      2490      2490      2491      2492
      2490      2491      2493      2490      2491      2494      2491      2494      2495
      2491      2494      2496      2491      2494      2502      2492      2491      2493
      2492      2491      2494      2493      2491      2494      2494      2496      2497
      2494      2502      2503      2494      2502      2504      2494      2502      2505
      2495      2494      2496      2495      2494      2502      2496      2494      2502
      2496      2497      2498      2496      2497      2499      2497      2499      2500
      2497      2499      2501      2497      2499      2511      2498      2497      2499
      2499      2511      2512      2499      2511      2513      2499      2511      2514
      2500      2499      2501      2500      2499      2511      2501      2499      2511
      2502      2505      2506      2503      2502      2504      2503      2502      2505
      2504      2502      2505      2505      2506      2507      2505      2506      2508
      2506      2508      2509      2506      2508      2510      2506      2508      2556
      2507      2506      2508      2508      2556      2557      2508      2556      2558
      2508      2556      2559      2509      2508      2510      2509      2508      2556
      2510      2508      2556      2511      2514      2515      2511      2514      2516
      2511      2514      2517      2512      2511      2513      2512      2511      2514
      2513      2511      2514      2514      2517      2518      2514      2517      2519
      2514      2517      2520      2515      2514      2516      2515      2514      2517
      2516      2514      2517      2517      2520      2521      2517      2520      2522
      2517      2520      2523      2518      2517      2519      2518      2517      2520
      2519      2517      2520      2520      2523      2524      2520      2523      2525
      2520      2523      2526      2521      2520      2522      2521      2520      2523
      2522      2520      2523      2523      2526      2527      2523      2526      2528
      2523      2526      2529      2524      2523      2525      2524      2523      2526
      2525      2523      2526      2526      2529      2530      2526      2529      2531
      2527      2526      2528      2527      2526      2529      2528      2526      2529
      2529      2531      2532      2529      2531      2533      2530      2529      2531
      2531      2533      2534      2531      2533      2535      2531      2533      2536
      2532      2531      2533      2533      2536      2537      2533      2536      2538
      2534      2533      2535      2534      2533      2536      2535      2533      2536
      2536      2538      2539      2536      2538      2540      2537      2536      2538
      2538      2540      2541      2538      2540      2542      2538      2540      2543
      2539      2538      2540      2540      2543      2544      2540      2543      2545
      2540      2543      2546      2541      2540      2542      2541      2540      2543
      2542      2540      2543      2543      2546      2547      2543      2546      2548
      2543      2546      2549      2544      2543      2545      2544      2543      2546
      2545      2543      2546      2546      2549      2550      2546      2549      2551
      2546      2549      2552      2547      2546      2548      2547      2546      2549
      2548      2546      2549      2549      2552      2553      2549      2552      2554
      2549      2552      2555      2550      2549      2551      2550      2549      2552
      2551      2549      2552      2553      2552      2554      2553      2552      2555
      2554      2552      2555      2556      2559      2560      2556      2559      2561
      2556      2559      2562      2557      2556      2558      2557      2556      2559
      2558      2556      2559      2559      2562      2563      2559      2562      2564
      2559      2562      2565      2560      2559      2561      2560      2559      2562
      2561      2559      2562      2562      2565      2566      2562      2565      2567
      2562      2565      2568      2563      2562      2564      2563      2562      2565
      2564      2562      2565      2565      2568      2569      2565      2568      2570
      2565      2568      2571      2566      2565      2567      2566      2565      2568
      2567      2565      2568      2568      2571      2572      2568      2571      2573
      2568      2571      2574      2569      2568      2570      2569      2568      2571
      2570      2568      2571      2571      2574      2575      2571      2574      2576
      2571      2574      2577      2572      2571      2573      2572      2571      2574
      2573      2571      2574      2574      2577      2578      2574      2577      2579
      2574      2577      2580      2575      2574      2576      2575      2574      2577
      2576      2574      2577      2577      2580      2581      2577      2580      2582
      2577      2580      2583      2578      2577      2579      2578      2577      2580
      2579      2577      2580      2580      2583      2584      2580      2583      2585
      2580      2583      2586      2581      2580      2582      2581      2580      2583
      2582      2580      2583      2583      2586      2587      2583      2586      2588
      2583      2586      2589      2584      2583      2585      2584      2583      2586
      2585      2583      2586      2586      2589      2590      2586      2589      2591
      2586      2589      2592      2587      2586      2588      2587      2586      2589
      2588      2586      2589      2589      2592      2593      2589      2592      2594
      2589      2592      2595      2590      2589      2591      2590      2589      2592
      2591      2589      2592      2592      2595      2596      2592      2595      2597
      2592      2595      2598      2593      2592      2594      2593      2592      2595
      2594      2592      2595      2595      2598      2599      2595      2598      2600
      2595      2598      2601      2596      2595      2597      2596      2595      2598
      2597      2595      2598      2598      2601      2602      2598      2601      2603
      2598      2601      2604      2599      2598      2600      2599      2598      2601
      2600      2598      2601      2602      2601      2603      2602      2601      2604
      2603      2601      2604      2605      2606      2607      2605      2606      2608
      2605      2606      2609      2605      2610      2611      2605      2610      2612
      2605      2610      2613      2605      2614      2615      2605      2614      2616
      2605      2614      2617      2605      2618      2619      2605      2618      2620
      2605      2618      2621      2606      2605      2610      2606      2605      2614
      2606      2605      2618      2607      2606      2608      2607      2606      2609
      2608      2606      2609      2610      2605      2614      2610      2605      2618
      2611      2610      2612      2611      2610      2613      2612      2610      2613
      2614      2605      2618      2615      2614      2616      2615      2614      2617
      2616      2614      2617      2618      2621      2622      2618      2621      2623
      2618      2621      2628      2619      2618      2620      2619      2618      2621
      2620      2618      2621      2621      2628      2624      2622      2621      2623
      2622      2621      2628      2623      2621      2628      2624      2627      2629
      2625      2624      2626      2625      2624      2627      2625      2624      2628
      2626      2624      2627      2626      2624      2628      2627      2624      2628
      2627      2629      2630      2627      2629      2631      2627      2629      2634
      2629      2634      2632      2629      2634      2635      2629      2634      2636
      2630      2629      2631      2630      2629      2634      2631      2629      2634
      2632      2634      2635      2632      2634      2636      2632      2684      2685
      2632      2684      2686      2633      2632      2634      2633      2632      2684
      2634      2632      2684      2634      2636      2637      2634      2636      2638
      2634      2636      2640      2635      2634      2636      2636      2638      2639
      2636      2640      2641      2636      2640      2642      2637      2636      2638
      2637      2636      2640      2638      2636      2640      2640      2642      2643
      2640      2642      2644      2641      2640      2642      2642      2644      2645
      2642      2644      2646      2642      2644      2647      2643      2642      2644
      2644      2647      2648      2644      2647      2649      2644      2647      2650
      2645      2644      2646      2645      2644      2647      2646      2644      2647
      2647      2650      2651      2647      2650      2652      2647      2650      2653
      2648      2647      2649      2648      2647      2650      2649      2647      2650
      2650      2653      2654      2650      2653      2655      2650      2653      2656
      2651      2650      2652      2651      2650      2653      2652      2650      2653
      2653      2656      2657      2653      2656      2658      2653      2656      2659
      2654      2653      2655      2654      2653      2656      2655      2653      2656
      2656      2659      2660      2656      2659      2661      2656      2659      2662
      2657      2656      2658      2657      2656      2659      2658      2656      2659
      2659      2662      2663      2659      2662      2664      2659      2662      2665
      2660      2659      2661      2660      2659      2662      2661      2659      2662
      2662      2665      2666      2662      2665      2667      2662      2665      2668
      2663      2662      2664      2663      2662      2665      2664      2662      2665
      2665      2668      2669      2665      2668      2670      2665      2668      2671
      2666      2665      2667      2666      2665      2668      2667      2665      2668
      2668      2671      2672      2668      2671      2673      2668      2671      2674
      2669      2668      2670      2669      2668      2671      2670      2668      2671
      2671      2674      2675      2671      2674      2676      2671      2674      2677
      2672      2671      2673      2672      2671      2674      2673      2671      2674
      2674      2677      2678      2674      2677      2679      2674      2677      2680
      2675      2674      2676      2675      2674      2677      2676      2674      2677
      2677      2680      2681      2677      2680      2682      2677      2680      2683
      2678      2677      2679      2678      2677      2680      2679      2677      2680
      2681      2680      2682      2681      2680      2683      2682      2680      2683
      2684      2686      2687      2684      2686      2688      2684      2686      2689
      2685      2684      2686      2686      2689      2690      2686      2689      2691
      2686      2689      2692      2687      2686      2688      2687      2686      2689
      2688      2686      2689      2689      2692      2693      2689      2692      2694
      2689      2692      2695      2690      2689      2691      2690      2689      2692
      2691      2689      2692      2692      2695      2696      2692      2695      2697
      2692      2695      2698      2693      2692      2694      2693      2692      2695
      2694      2692      2695      2695      2698      2699      2695      2698      2700
      2695      2698      2701      2696      2695      2697      2696      2695      2698
      2697      2695      2698      2698      2701      2702      2698      2701      2703
      2698      2701      2704      2699      2698      2700      2699      2698      2701
      2700      2698      2701      2701      2704      2705      2701      2704      2706
      2701      2704      2707      2702      2701      2703      2702      2701      2704
      2703      2701      2704      2704      2707      2708      2704      2707      2709
      2705      2704      2706      2705      2704      2707      2706      2704      2707
      2707      2709      2710      2707      2709      2711      2708      2707      2709
      2709      2711      2712      2709      2711      2713      2709      2711      2714
      2710      2709      2711      2711      2714      2715      2711      2714      2716
      2711      2714      2717      2712      2711      2713      2712      2711      2714
      2713      2711      2714      2714      2717      2718      2714      2717      2719
      2714      2717      2720      2715      2714      2716      2715      2714      2717
      2716      2714      2717      2717      2720      2721      2717      2720      2722
      2717      2720      2723      2718      2717      2719      2718      2717      2720
      2719      2717      2720      2720      2723      2724      2720      2723      2725
      2720      2723      2726      2721      2720      2722      2721      2720      2723
      2722      2720      2723      2723      2726      2727      2723      2726      2728
      2723      2726      2729      2724      2723      2725      2724      2723      2726
      2725      2723      2726      2726      2729      2730      2726      2729      2731
      2726      2729      2732      2727      2726      2728      2727      2726      2729
      2728      2726      2729      2729      2732      2733      2729      2732      2734
      2729      2732      2735      2730      2729      2731      2730      2729      2732
      2731      2729      2732      2733      2732      2734      2733      2732      2735
      2734      2732      2735      2736      2738      2739      2736      2740      2741
      2736      2740      2742      2736      2740      2743      2736      2782      2779
      2736      2782      2783      2736      2782      2784      2737      2736      2738
      2737      2736      2740      2737      2736      2782      2738      2736      2740
      2738      2736      2782      2740      2736      2782      2740      2743      2744
      2740      2743      2774      2741      2740      2742      2741      2740      2743
      2742      2740      2743      2743      2744      2745      2743      2744      2746
      2743      2774      2772      2743      2774      2775      2743      2774      2779
      2744      2743      2774      2744      2746      2747      2744      2746      2748
      2744      2746      2749      2745      2744      2746      2746      2749      2750
      2746      2749      2751      2746      2749      2772      2747      2746      2748
      2747      2746      2749      2748      2746      2749      2749      2751      2752
      2749      2751      2753      2749      2751      2761      2749      2772      2769
      2749      2772      2773      2749      2772      2774      2750      2749      2751
      2750      2749      2772      2751      2749      2772      2751      2753      2754
      2751      2753      2755      2751      2753      2756      2751      2761      2759
      2751      2761      2762      2751      2761      2766      2752      2751      2753
      2752      2751      2761      2753      2751      2761      2753      2756      2757
      2753      2756      2758      2753      2756      2759      2754      2753      2755
      2754      2753      2756      2755      2753      2756      2756      2759      2760
      2756      2759      2761      2756      2759      2785      2757      2756      2758
      2757      2756      2759      2758      2756      2759      2759      2761      2762
      2759      2761      2766      2759      2785      2786      2759      2785      2787
      2759      2785      2791      2760      2759      2761      2760      2759      2785
      2761      2759      2785      2761      2762      2763      2761      2762      2764
      2761      2762      2765      2761      2766      2767      2761      2766      2768
      2761      2766      2769      2762      2761      2766      2763      2762      2764
      2763      2762      2765      2764      2762      2765      2766      2769      2770
      2766      2769      2771      2766      2769      2772      2767      2766      2768
      2767      2766      2769      2768      2766      2769      2769      2772      2773
      2769      2772      2774      2770      2769      2771      2770      2769      2772
      2771      2769      2772      2772      2774      2775      2772      2774      2779
      2773      2772      2774      2774      2775      2776      2774      2775      2777
      2774      2775      2778      2774      2779      2780      2774      2779      2781
      2774      2779      2782      2775      2774      2779      2776      2775      2777
      2776      2775      2778      2777      2775      2778      2779      2782      2783
      2779      2782      2784      2780      2779      2781      2780      2779      2782
      2781      2779      2782      2783      2782      2784      2785      2787      2788
      2785      2787      2789      2785      2787      2790      2785      2791      2792
      2785      2791      2793      2785      2791      2794      2786      2785      2787
      2786      2785      2791      2787      2785      2791      2788      2787      2789
      2788      2787      2790      2789      2787      2790      2791      2794      2795
      2791      2794      2796      2791      2794      2797      2792      2791      2793
      2792      2791      2794      2793      2791      2794      2794      2797      2798
      2794      2797      2799      2794      2797      2800      2795      2794      2796
      2795      2794      2797      2796      2794      2797      2797      2800      2801
      2797      2800      2802      2797      2800      2806      2798      2797      2799
      2798      2797      2800      2799      2797      2800      2800      2802      2803
      2800      2802      2804      2800      2802      2805      2800      2806      2807
      2800      2806      2808      2800      2806      2809      2801      2800      2802
      2801      2800      2806      2802      2800      2806      2803      2802      2804
      2803      2802      2805      2804      2802      2805      2807      2806      2808
      2807      2806      2809      2808      2806      2809      2810      2814      2815
      2810      2814      2816      2810      2814      2817      2811      2810      2812
      2811      2810      2813      2811      2810      2814      2812      2810      2813
      2812      2810      2814      2813      2810      2814      2814      2817      2818
      2814      2817      2819      2814      2817      2823      2815      2814      2816
      2815      2814      2817      2816      2814      2817      2817      2823      2820
      2818      2817      2819      2818      2817      2823      2819      2817      2823
      2820      2824      2825      2821      2820      2822      2821      2820      2823
      2821      2820      2824      2822      2820      2823      2822      2820      2824
      2823      2820      2824      2824      2825      2826      2824      2825      2827
      2824      2825      2828      2825      2828      2829      2825      2828      2830
      2825      2828      2836      2826      2825      2827      2826      2825      2828
      2827      2825      2828      2828      2830      2831      2828      2836      2837
      2828      2836      2838      2828      2836      2839      2829      2828      2830
      2829      2828      2836      2830      2828      2836      2830      2831      2832
      2830      2831      2833      2831      2833      2834      2831      2833      2835
      2831      2833      2845      2832      2831      2833      2833      2845      2846
      2833      2845      2847      2833      2845      2848      2834      2833      2835
      2834      2833      2845      2835      2833      2845      2836      2839      2840
      2837      2836      2838      2837      2836      2839      2838      2836      2839
      2839      2840      2841      2839      2840      2842      2840      2842      2843
      2840      2842      2844      2840      2842      2892      2841      2840      2842
      2842      2892      2893      2842      2892      2894      2842      2892      2895
      2843      2842      2844      2843      2842      2892      2844      2842      2892
      2845      2848      2849      2845      2848      2850      2845      2848      2851
      2846      2845      2847      2846      2845      2848      2847      2845      2848
      2848      2851      2852      2848      2851      2853      2849      2848      2850
      2849      2848      2851      2850      2848      2851      2851      2853      2854
      2851      2853      2855      2852      2851      2853      2853      2855      2856
      2853      2855      2857      2853      2855      2858      2854      2853      2855
      2855      2858      2859      2855      2858      2860      2856      2855      2857
      2856      2855      2858      2857      2855      2858      2858      2860      2861
      2858      2860      2862      2859      2858      2860      2860      2862      2863
      2860      2862      2864      2860      2862      2865      2861      2860      2862
      2862      2865      2866      2862      2865      2867      2863      2862      2864
      2863      2862      2865      2864      2862      2865      2865      2867      2868
      2865      2867      2869      2866      2865      2867      2867      2869      2870
      2867      2869      2871      2867      2869      2872      2868      2867      2869
      2869      2872      2873      2869      2872      2874      2870      2869      2871
      2870      2869      2872      2871      2869      2872      2872      2874      2875
      2872      2874      2876      2873      2872      2874      2874      2876      2877
      2874      2876      2878      2874      2876      2879      2875      2874      2876
      2876      2879      2880      2876      2879      2881      2876      2879      2882
      2877      2876      2878      2877      2876      2879      2878      2876      2879
      2879      2882      2883      2879      2882      2884      2879      2882      2885
      2880      2879      2881      2880      2879      2882      2881      2879      2882
      2882      2885      2886      2882      2885      2887      2882      2885      2888
      2883      2882      2884      2883      2882      2885      2884      2882      2885
      2885      2888      2889      2885      2888      2890      2885      2888      2891
      2886      2885      2887      2886      2885      2888      2887      2885      2888
      2889      2888      2890      2889      2888      2891      2890      2888      2891
      2892      2895      2896      2892      2895      2897      2892      2895      2898
      2893      2892      2894      2893      2892      2895      2894      2892      2895
      2895      2898      2899      2895      2898      2900      2895      2898      2901
      2896      2895      2897      2896      2895      2898      2897      2895      2898
      2898      2901      2902      2898      2901      2903      2898      2901      2904
      2899      2898      2900      2899      2898      2901      2900      2898      2901
      2901      2904      2905      2901      2904      2906      2901      2904      2907
      2902      2901      2903      2902      2901      2904      2903      2901      2904
      2904      2907      2908      2904      2907      2909      2904      2907      2910
      2905      2904      2906      2905      2904      2907      2906      2904      2907
      2907      2910      2911      2907      2910      2912      2907      2910      2913
      2908      2907      2909      2908      2907      2910      2909      2907      2910
      2910      2913      2914      2910      2913      2915      2910      2913      2916
      2911      2910      2912      2911      2910      2913      2912      2910      2913
      2913      2916      2917      2913      2916      2918      2913      2916      2919
      2914      2913      2915      2914      2913      2916      2915      2913      2916
      2916      2919      2920      2916      2919      2921      2916      2919      2922
      2917      2916      2918      2917      2916      2919      2918      2916      2919
      2919      2922      2923      2919      2922      2924      2919      2922      2925
      2920      2919      2921      2920      2919      2922      2921      2919      2922
      2922      2925      2926      2922      2925      2927      2922      2925      2928
      2923      2922      2924      2923      2922      2925      2924      2922      2925
      2925      2928      2929      2925      2928      2930      2925      2928      2931
      2926      2925      2927      2926      2925      2928      2927      2925      2928
      2928      2931      2932      2928      2931      2933      2928      2931      2934
      2929      2928      2930      2929      2928      2931      2930      2928      2931
      2931      2934      2935      2931      2934      2936      2931      2934      2937
      2932      2931      2933      2932      2931      2934      2933      2931      2934
      2934      2937      2938      2934      2937      2939      2934      2937      2940
      2935      2934      2936      2935      2934      2937      2936      2934      2937
      2938      2937      2939      2938      2937      2940      2939      2937      2940
      2941      2945      2946      2941      2945      2947      2941      2945      2948
      2942      2941      2943      2942      2941      2944      2942      2941      2945
      2943      2941      2944      2943      2941      2945      2944      2941      2945
      2945      2948      2949      2945      2948      2950      2945      2948      2954
      2946      2945      2947      2946      2945      2948      2947      2945      2948
      2948      2954      2951      2949      2948      2950      2949      2948      2954
      2950      2948      2954      2951      2955      2956      2952      2951      2953
      2952      2951      2954      2952      2951      2955      2953      2951      2954
      2953      2951      2955      2954      2951      2955      2955      2956      2957
      2955      2956      2958      2955      2956      2959      2956      2959      2960
      2956      2959      2961      2956      2959      2967      2957      2956      2958
      2957      2956      2959      2958      2956      2959      2959      2961      2962
      2959      2967      2968      2959      2967      2969      2959      2967      2970
      2960      2959      2961      2960      2959      2967      2961      2959      2967
      2961      2962      2963      2961      2962      2964      2962      2964      2965
      2962      2964      2966      2962      2964      2976      2963      2962      2964
      2964      2976      2977      2964      2976      2978      2964      2976      2979
      2965      2964      2966      2965      2964      2976      2966      2964      2976
      2967      2970      2971      2968      2967      2969      2968      2967      2970
      2969      2967      2970      2970      2971      2972      2970      2971      2973
      2971      2973      2974      2971      2973      2975      2971      2973      3023
      2972      2971      2973      2973      3023      3024      2973      3023      3025
      2973      3023      3026      2974      2973      2975      2974      2973      3023
      2975      2973      3023      2976      2979      2980      2976      2979      2981
      2976      2979      2982      2977      2976      2978      2977      2976      2979
      2978      2976      2979      2979      2982      2983      2979      2982      2984
      2979      2982      2985      2980      2979      2981      2980      2979      2982
      2981      2979      2982      2982      2985      2986      2982      2985      2987
      2982      2985      2988      2983      2982      2984      2983      2982      2985
      2984      2982      2985      2985      2988      2989      2985      2988      2990
      2985      2988      2991      2986      2985      2987      2986      2985      2988
      2987      2985      2988      2988      2991      2992      2988      2991      2993
      2988      2991      2994      2989      2988      2990      2989      2988      2991
      2990      2988      2991      2991      2994      2995      2991      2994      2996
      2992      2991      2993      2992      2991      2994      2993      2991      2994
      2994      2996      2997      2994      2996      2998      2995      2994      2996
      2996      2998      2999      2996      2998      3000      2996      2998      3001
      2997      2996      2998      2998      3001      3002      2998      3001      3003
      2998      3001      3004      2999      2998      3000      2999      2998      3001
      3000      2998      3001      3001      3004      3005      3001      3004      3006
      3001      3004      3007      3002      3001      3003      3002      3001      3004
      3003      3001      3004      3004      3007      3008      3004      3007      3009
      3004      3007      3010      3005      3004      3006      3005      3004      3007
      3006      3004      3007      3007      3010      3011      3007      3010      3012
      3007      3010      3013      3008      3007      3009      3008      3007      3010
      3009      3007      3010      3010      3013      3014      3010      3013      3015
      3010      3013      3016      3011      3010      3012      3011      3010      3013
      3012      3010      3013      3013      3016      3017      3013      3016      3018
      3013      3016      3019      3014      3013      3015      3014      3013      3016
      3015      3013      3016      3016      3019      3020      3016      3019      3021
      3016      3019      3022      3017      3016      3018      3017      3016      3019
      3018      3016      3019      3020      3019      3021      3020      3019      3022
      3021      3019      3022      3023      3026      3027      3023      3026      3028
      3023      3026      3029      3024      3023      3025      3024      3023      3026
      3025      3023      3026      3026      3029      3030      3026      3029      3031
      3026      3029      3032      3027      3026      3028      3027      3026      3029
      3028      3026      3029      3029      3032      3033      3029      3032      3034
      3029      3032      3035      3030      3029      3031      3030      3029      3032
      3031      3029      3032      3032      3035      3036      3032      3035      3037
      3032      3035      3038      3033      3032      3034      3033      3032      3035
      3034      3032      3035      3035      3038      3039      3035      3038      3040
      3035      3038      3041      3036      3035      3037      3036      3035      3038
      3037      3035      3038      3038      3041      3042      3038      3041      3043
      3038      3041      3044      3039      3038      3040      3039      3038      3041
      3040      3038      3041      3041      3044      3045      3041      3044      3046
      3041      3044      3047      3042      3041      3043      3042      3041      3044
      3043      3041      3044      3044      3047      3048      3044      3047      3049
      3044      3047      3050      3045      3044      3046      3045      3044      3047
      3046      3044      3047      3047      3050      3051      3047      3050      3052
      3047      3050      3053      3048      3047      3049      3048      3047      3050
      3049      3047      3050      3050      3053      3054      3050      3053      3055
      3050      3053      3056      3051      3050      3052      3051      3050      3053
      3052      3050      3053      3053      3056      3057      3053      3056      3058
      3053      3056      3059      3054      3053      3055      3054      3053      3056
      3055      3053      3056      3056      3059      3060      3056      3059      3061
      3056      3059      3062      3057      3056      3058      3057      3056      3059
      3058      3056      3059      3059      3062      3063      3059      3062      3064
      3059      3062      3065      3060      3059      3061      3060      3059      3062
      3061      3059      3062      3062      3065      3066      3062      3065      3067
      3062      3065      3068      3063      3062      3064      3063      3062      3065
      3064      3062      3065      3065      3068      3069      3065      3068      3070
      3065      3068      3071      3066      3065      3067      3066      3065      3068
      3067      3065      3068      3069      3068      3070      3069      3068      3071
      3070      3068      3071      3072      3073      3074      3072      3073      3075
      3072      3073      3076      3072      3077      3078      3072      3077      3079
      3072      3077      3080      3072      3081      3082      3072      3081      3083
      3072      3081      3084      3072      3085      3086      3072      3085      3087
      3072      3085      3088      3073      3072      3077      3073      3072      3081
      3073      3072      3085      3074      3073      3075      3074      3073      3076
      3075      3073      3076      3077      3072      3081      3077      3072      3085
      3078      3077      3079      3078      3077      3080      3079      3077      3080
      3081      3072      3085      3082      3081      3083      3082      3081      3084
      3083      3081      3084      3085      3088      3089      3085      3088      3090
      3085      3088      3094      3086      3085      3087      3086      3085      3088
      3087      3085      3088      3088      3094      3091      3089      3088      3090
      3089      3088      3094      3090      3088      3094      3091      3095      3096
      3092      3091      3093      3092      3091      3094      3092      3091      3095
      3093      3091      3094      3093      3091      3095      3094      3091      3095
      3095      3096      3097      3095      3096      3098      3095      3096      3099
      3096      3099      3100      3096      3099      3101      3096      3099      3107
      3097      3096      3098      3097      3096      3099      3098      3096      3099
      3099      3101      3102      3099      3107      3108      3099      3107      3109
      3099      3107      3110      3100      3099      3101      3100      3099      3107
      3101      3099      3107      3101      3102      3103      3101      3102      3104
      3102      3104      3105      3102      3104      3106      3102      3104      3116
      3103      3102      3104      3104      3116      3117      3104      3116      3118
      3104      3116      3119      3105      3104      3106      3105      3104      3116
      3106      3104      3116      3107      3110      3111      3108      3107      3109
      3108      3107      3110      3109      3107      3110      3110      3111      3112
      3110      3111      3113      3111      3113      3114      3111      3113      3115
      3111      3113      3161      3112      3111      3113      3113      3161      3162
      3113      3161      3163      3113      3161      3164      3114      3113      3115
      3114      3113      3161      3115      3113      3161      3116      3119      3120
      3116      3119      3121      3116      3119      3122      3117      3116      3118
      3117      3116      3119      3118      3116      3119      3119      3122      3123
      3119      3122      3124      3119      3122      3125      3120      3119      3121
      3120      3119      3122      3121      3119      3122      3122      3125      3126
      3122      3125      3127      3122      3125      3128      3123      3122      3124
      3123      3122      3125      3124      3122      3125      3125      3128      3129
      3125      3128      3130      3125      3128      3131      3126      3125      3127
      3126      3125      3128      3127      3125      3128      3128      3131      3132
      3128      3131      3133      3128      3131      3134      3129      3128      3130
      3129      3128      3131      3130      3128      3131      3131      3134      3135
      3131      3134      3136      3132      3131      3133      3132      3131      3134
      3133      3131      3134      3134      3136      3137      3134      3136      3138
      3135      3134      3136      3136      3138      3139      3136      3138      3140
      3136      3138      3141      3137      3136      3138      3138      3141      3142
      3138      3141      3143      3139      3138      3140      3139      3138      3141
      3140      3138      3141      3141      3143      3144      3141      3143      3145
      3142      3141      3143      3143      3145      3146      3143      3145      3147
      3143      3145      3148      3144      3143      3145      3145      3148      3149
      3145      3148      3150      3145      3148      3151      3146      3145      3147
      3146      3145      3148      3147      3145      3148      3148      3151      3152
      3148      3151      3153      3148      3151      3154      3149      3148      3150
      3149      3148      3151      3150      3148      3151      3151      3154      3155
      3151      3154      3156      3151      3154      3157      3152      3151      3153
      3152      3151      3154      3153      3151      3154      3154      3157      3158
      3154      3157      3159      3154      3157      3160      3155      3154      3156
      3155      3154      3157      3156      3154      3157      3158      3157      3159
      3158      3157      3160      3159      3157      3160      3161      3164      3165
      3161      3164      3166      3161      3164      3167      3162      3161      3163
      3162      3161      3164      3163      3161      3164      3164      3167      3168
      3164      3167      3169      3164      3167      3170      3165      3164      3166
      3165      3164      3167      3166      3164      3167      3167      3170      3171
      3167      3170      3172      3167      3170      3173      3168      3167      3169
      3168      3167      3170      3169      3167      3170      3170      3173      3174
      3170      3173      3175      3170      3173      3176      3171      3170      3172
      3171      3170      3173      3172      3170      3173      3173      3176      3177
      3173      3176      3178      3173      3176      3179      3174      3173      3175
      3174      3173      3176      3175      3173      3176      3176      3179      3180
      3176      3179      3181      3176      3179      3182      3177      3176      3178
      3177      3176      3179      3178      3176      3179      3179      3182      3183
      3179      3182      3184      3179      3182      3185      3180      3179      3181
      3180      3179      3182      3181      3179      3182      3182      3185      3186
      3182      3185      3187      3182      3185      3188      3183      3182      3184
      3183      3182      3185      3184      3182      3185      3185      3188      3189
      3185      3188      3190      3185      3188      3191      3186      3185      3187
      3186      3185      3188      3187      3185      3188      3188      3191      3192
      3188      3191      3193      3188      3191      3194      3189      3188      3190
      3189      3188      3191      3190      3188      3191      3191      3194      3195
      3191      3194      3196      3191      3194      3197      3192      3191      3193
      3192      3191      3194      3193      3191      3194      3194      3197      3198
      3194      3197      3199      3194      3197      3200      3195      3194      3196
      3195      3194      3197      3196      3194      3197      3197      3200      3201
      3197      3200      3202      3197      3200      3203      3198      3197      3199
      3198      3197      3200      3199      3197      3200      3200      3203      3204
      3200      3203      3205      3200      3203      3206      3201      3200      3202
      3201      3200      3203      3202      3200      3203      3203      3206      3207
      3203      3206      3208      3203      3206      3209      3204      3203      3205
      3204      3203      3206      3205      3203      3206      3207      3206      3208
      3207      3206      3209      3208      3206      3209      3210      3211      3212
      3210      3211      3213      3210      3211      3214      3210      3215      3216
      3210      3215      3217      3210      3215      3218      3210      3219      3220
      3210      3219      3221      3210      3219      3222      3210      3223      3224
      3210      3223      3225      3210      3223      3226      3211      3210      3215
      3211      3210      3219      3211      3210      3223      3212      3211      3213
      3212      3211      3214      3213      3211      3214      3215      3210      3219
      3215      3210      3223      3216      3215      3217      3216      3215      3218
      3217      3215      3218      3219      3210      3223      3220      3219      3221
      3220      3219      3222      3221      3219      3222      3223      3226      3227
      3223      3226      3228      3223      3226      3233      3224      3223      3225
      3224      3223      3226      3225      3223      3226      3226      3233      3229
      3227      3226      3228      3227      3226      3233      3228      3226      3233
      3229      3232      3234      3230      3229      3231      3230      3229      3232
      3230      3229      3233      3231      3229      3232      3231      3229      3233
      3232      3229      3233      3232      3234      3235      3232      3234      3236
      3232      3234      3239      3234      3239      3237      3234      3239      3240
      3234      3239      3241      3235      3234      3236      3235      3234      3239
      3236      3234      3239      3237      3239      3240      3237      3239      3241
      3237      3289      3290      3237      3289      3291      3238      3237      3239
      3238      3237      3289      3239      3237      3289      3239      3241      3242
      3239      3241      3243      3239      3241      3245      3240      3239      3241
      3241      3243      3244      3241      3245      3246      3241      3245      3247
      3242      3241      3243      3242      3241      3245      3243      3241      3245
      3245      3247      3248      3245      3247      3249      3246      3245      3247
      3247      3249      3250      3247      3249      3251      3247      3249      3252
      3248      3247      3249      3249      3252      3253      3249      3252      3254
      3249      3252      3255      3250      3249      3251      3250      3249      3252
      3251      3249      3252      3252      3255      3256      3252      3255      3257
      3252      3255      3258      3253      3252      3254      3253      3252      3255
      3254      3252      3255      3255      3258      3259      3255      3258      3260
      3255      3258      3261      3256      3255      3257      3256      3255      3258
      3257      3255      3258      3258      3261      3262      3258      3261      3263
      3258      3261      3264      3259      3258      3260      3259      3258      3261
      3260      3258      3261      3261      3264      3265      3261      3264      3266
      3261      3264      3267      3262      3261      3263      3262      3261      3264
      3263      3261      3264      3264      3267      3268      3264      3267      3269
      3264      3267      3270      3265      3264      3266      3265      3264      3267
      3266      3264      3267      3267      3270      3271      3267      3270      3272
      3267      3270      3273      3268      3267      3269      3268      3267      3270
      3269      3267      3270      3270      3273      3274      3270      3273      3275
      3270      3273      3276      3271      3270      3272      3271      3270      3273
      3272      3270      3273      3273      3276      3277      3273      3276      3278
      3273      3276      3279      3274      3273      3275      3274      3273      3276
      3275      3273      3276      3276      3279      3280      3276      3279      3281
      3276      3279      3282      3277      3276      3278      3277      3276      3279
      3278      3276      3279      3279      3282      3283      3279      3282      3284
      3279      3282      3285      3280      3279      3281      3280      3279      3282
      3281      3279      3282      3282      3285      3286      3282      3285      3287
      3282      3285      3288      3283      3282      3284      3283      3282      3285
      3284      3282      3285      3286      3285      3287      3286      3285      3288
      3287      3285      3288      3289      3291      3292      3289      3291      3293
      3289      3291      3294      3290      3289      3291      3291      3294      3295
      3291      3294      3296      3291      3294      3297      3292      3291      3293
      3292      3291      3294      3293      3291      3294      3294      3297      3298
      3294      3297      3299      3294      3297      3300      3295      3294      3296
      3295      3294      3297      3296      3294      3297      3297      3300      3301
      3297      3300      3302      3297      3300      3303      3298      3297      3299
      3298      3297      3300      3299      3297      3300      3300      3303      3304
      3300      3303      3305      3300      3303      3306      3301      3300      3302
      3301      3300      3303      3302      3300      3303      3303      3306      3307
      3303      3306      3308      3303      3306      3309      3304      3303      3305
      3304      3303      3306      3305      3303      3306      3306      3309      3310
      3306      3309      3311      3306      3309      3312      3307      3306      3308
      3307      3306      3309      3308      3306      3309      3309      3312      3313
      3309      3312      3314      3310      3309      3311      3310      3309      3312
      3311      3309      3312      3312      3314      3315      3312      3314      3316
      3313      3312      3314      3314      3316      3317      3314      3316      3318
      3314      3316      3319      3315      3314      3316      3316      3319      3320
      3316      3319      3321      3316      3319      3322      3317      3316      3318
      3317      3316      3319      3318      3316      3319      3319      3322      3323
      3319      3322      3324      3319      3322      3325      3320      3319      3321
      3320      3319      3322      3321      3319      3322      3322      3325      3326
      3322      3325      3327      3322      3325      3328      3323      3322      3324
      3323      3322      3325      3324      3322      3325      3325      3328      3329
      3325      3328      3330      3325      3328      3331      3326      3325      3327
      3326      3325      3328      3327      3325      3328      3328      3331      3332
      3328      3331      3333      3328      3331      3334      3329      3328      3330
      3329      3328      3331      3330      3328      3331      3331      3334      3335
      3331      3334      3336      3331      3334      3337      3332      3331      3333
      3332      3331      3334      3333      3331      3334      3334      3337      3338
      3334      3337      3339      3334      3337      3340      3335      3334      3336
      3335      3334      3337      3336      3334      3337      3338      3337      3339
      3338      3337      3340      3339      3337      3340      3341      3342      3343
      3341      3342      3344      3341      3342      3345      3341      3346      3347
      3341      3346      3348      3341      3346      3349      3341      3350      3351
      3341      3350      3352      3341      3350      3353      3341      3354      3355
      3341      3354      3356      3341      3354      3357      3342      3341      3346
      3342      3341      3350      3342      3341      3354      3343      3342      3344
      3343      3342      3345      3344      3342      3345      3346      3341      3350
      3346      3341      3354      3347      3346      3348      3347      3346      3349
      3348      3346      3349      3350      3341      3354      3351      3350      3352
      3351      3350      3353      3352      3350      3353      3354      3357      3358
      3354      3357      3359      3354      3357      3364      3355      3354      3356
      3355      3354      3357      3356      3354      3357      3357      3364      3360
      3358      3357      3359      3358      3357      3364      3359      3357      3364
      3360      3363      3365      3361      3360      3362      3361      3360      3363
      3361      3360      3364      3362      3360      3363      3362      3360      3364
      3363      3360      3364      3363      3365      3366      3363      3365      3367
      3363      3365      3370      3365      3370      3368      3365      3370      3371
      3365      3370      3372      3366      3365      3367      3366      3365      3370
      3367      3365      3370      3368      3370      3371      3368      3370      3372
      3368      3420      3421      3368      3420      3422      3369      3368      3370
      3369      3368      3420      3370      3368      3420      3370      3372      3373
      3370      3372      3374      3370      3372      3376      3371      3370      3372
      3372      3374      3375      3372      3376      3377      3372      3376      3378
      3373      3372      3374      3373      3372      3376      3374      3372      3376
      3376      3378      3379      3376      3378      3380      3377      3376      3378
      3378      3380      3381      3378      3380      3382      3378      3380      3383
      3379      3378      3380      3380      3383      3384      3380      3383      3385
      3380      3383      3386      3381      3380      3382      3381      3380      3383
      3382      3380      3383      3383      3386      3387      3383      3386      3388
      3383      3386      3389      3384      3383      3385      3384      3383      3386
      3385      3383      3386      3386      3389      3390      3386      3389      3391
      3386      3389      3392      3387      3386      3388      3387      3386      3389
      3388      3386      3389      3389      3392      3393      3389      3392      3394
      3389      3392      3395      3390      3389      3391      3390      3389      3392
      3391      3389      3392      3392      3395      3396      3392      3395      3397
      3392      3395      3398      3393      3392      3394      3393      3392      3395
      3394      3392      3395      3395      3398      3399      3395      3398      3400
      3395      3398      3401      3396      3395      3397      3396      3395      3398
      3397      3395      3398      3398      3401      3402      3398      3401      3403
      3398      3401      3404      3399      3398      3400      3399      3398      3401
      3400      3398      3401      3401      3404      3405      3401      3404      3406
      3401      3404      3407      3402      3401      3403      3402      3401      3404
      3403      3401      3404      3404      3407      3408      3404      3407      3409
      3404      3407      3410      3405      3404      3406      3405      3404      3407
      3406      3404      3407      3407      3410      3411      3407      3410      3412
      3407      3410      3413      3408      3407      3409      3408      3407      3410
      3409      3407      3410      3410      3413      3414      3410      3413      3415
      3410      3413      3416      3411      3410      3412      3411      3410      3413
      3412      3410      3413      3413      3416      3417      3413      3416      3418
      3413      3416      3419      3414      3413      3415      3414      3413      3416
      3415      3413      3416      3417      3416      3418      3417      3416      3419
      3418      3416      3419      3420      3422      3423      3420      3422      3424
      3420      3422      3425      3421      3420      3422      3422      3425      3426
      3422      3425      3427      3422      3425      3428      3423      3422      3424
      3423      3422      3425      3424      3422      3425      3425      3428      3429
      3425      3428      3430      3425      3428      3431      3426      3425      3427
      3426      3425      3428      3427      3425      3428      3428      3431      3432
      3428      3431      3433      3428      3431      3434      3429      3428      3430
      3429      3428      3431      3430      3428      3431      3431      3434      3435
      3431      3434      3436      3431      3434      3437      3432      3431      3433
      3432      3431      3434      3433      3431      3434      3434      3437      3438
      3434      3437      3439      3434      3437      3440      3435      3434      3436
      3435      3434      3437      3436      3434      3437      3437      3440      3441
      3437      3440      3442      3437      3440      3443      3438      3437      3439
      3438      3437      3440      3439      3437      3440      3440      3443      3444
      3440      3443      3445      3441      3440      3442      3441      3440      3443
      3442      3440      3443      3443      3445      3446      3443      3445      3447
      3444      3443      3445      3445      3447      3448      3445      3447      3449
      3445      3447      3450      3446      3445      3447      3447      3450      3451
      3447      3450      3452      3447      3450      3453      3448      3447      3449
      3448      3447      3450      3449      3447      3450      3450      3453      3454
      3450      3453      3455      3450      3453      3456      3451      3450      3452
      3451      3450      3453      3452      3450      3453      3453      3456      3457
      3453      3456      3458      3453      3456      3459      3454      3453      3455
      3454      3453      3456      3455      3453      3456      3456      3459      3460
      3456      3459      3461      3456      3459      3462      3457      3456      3458
      3457      3456      3459      3458      3456      3459      3459      3462      3463
      3459      3462      3464      3459      3462      3465      3460      3459      3461
      3460      3459      3462      3461      3459      3462      3462      3465      3466
      3462      3465      3467      3462      3465      3468      3463      3462      3464
      3463      3462      3465      3464      3462      3465      3465      3468      3469
      3465      3468      3470      3465      3468      3471      3466      3465      3467
      3466      3465      3468      3467      3465      3468      3469      3468      3470
      3469      3468      3471      3470      3468      3471      3472      3476      3477
      3472      3476      3478      3472      3476      3481      3473      3472      3474
      3473      3472      3475      3473      3472      3476      3474      3472      3475
      3474      3472      3476      3475      3472      3476      3476      3478      3479
      3476      3478      3480      3476      3481      3482      3476      3481      3483
      3476      3481      3487      3477      3476      3478      3477      3476      3481
      3478      3476      3481      3479      3478      3480      3481      3487      3484
      3482      3481      3483      3482      3481      3487      3483      3481      3487
      3484      3488      3489      3485      3484      3486      3485      3484      3487
      3485      3484      3488      3486      3484      3487      3486      3484      3488
      3487      3484      3488      3488      3489      3490      3488      3489      3491
      3488      3489      3492      3489      3492      3493      3489      3492      3494
      3489      3492      3500      3490      3489      3491      3490      3489      3492
      3491      3489      3492      3492      3494      3495      3492      3500      3501
      3492      3500      3502      3492      3500      3503      3493      3492      3494
      3493      3492      3500      3494      3492      3500      3494      3495      3496
      3494      3495      3497      3495      3497      3498      3495      3497      3499
      3495      3497      3509      3496      3495      3497      3497      3509      3510
      3497      3509      3511      3497      3509      3512      3498      3497      3499
      3498      3497      3509      3499      3497      3509      3500      3503      3504
      3501      3500      3502      3501      3500      3503      3502      3500      3503
      3503      3504      3505      3503      3504      3506      3504      3506      3507
      3504      3506      3508      3504      3506      3556      3505      3504      3506
      3506      3556      3557      3506      3556      3558      3506      3556      3559
      3507      3506      3508      3507      3506      3556      3508      3506      3556
      3509      3512      3513      3509      3512      3514      3509      3512      3515
      3510      3509      3511      3510      3509      3512      3511      3509      3512
      3512      3515      3516      3512      3515      3517      3513      3512      3514
      3513      3512      3515      3514      3512      3515      3515      3517      3518
      3515      3517      3519      3516      3515      3517      3517      3519      3520
      3517      3519      3521      3517      3519      3522      3518      3517      3519
      3519      3522      3523      3519      3522      3524      3520      3519      3521
      3520      3519      3522      3521      3519      3522      3522      3524      3525
      3522      3524      3526      3523      3522      3524      3524      3526      3527
      3524      3526      3528      3524      3526      3529      3525      3524      3526
      3526      3529      3530      3526      3529      3531      3527      3526      3528
      3527      3526      3529      3528      3526      3529      3529      3531      3532
      3529      3531      3533      3530      3529      3531      3531      3533      3534
      3531      3533      3535      3531      3533      3536      3532      3531      3533
      3533      3536      3537      3533      3536      3538      3534      3533      3535
      3534      3533      3536      3535      3533      3536      3536      3538      3539
      3536      3538      3540      3537      3536      3538      3538      3540      3541
      3538      3540      3542      3538      3540      3543      3539      3538      3540
      3540      3543      3544      3540      3543      3545      3540      3543      3546
      3541      3540      3542      3541      3540      3543      3542      3540      3543
      3543      3546      3547      3543      3546      3548      3543      3546      3549
      3544      3543      3545      3544      3543      3546      3545      3543      3546
      3546      3549      3550      3546      3549      3551      3546      3549      3552
      3547      3546      3548      3547      3546      3549      3548      3546      3549
      3549      3552      3553      3549      3552      3554      3549      3552      3555
      3550      3549      3551      3550      3549      3552      3551      3549      3552
      3553      3552      3554      3553      3552      3555      3554      3552      3555
      3556      3559      3560      3556      3559      3561      3556      3559      3562
      3557      3556      3558      3557      3556      3559      3558      3556      3559
      3559      3562      3563      3559      3562      3564      3559      3562      3565
      3560      3559      3561      3560      3559      3562      3561      3559      3562
      3562      3565      3566      3562      3565      3567      3562      3565      3568
      3563      3562      3564      3563      3562      3565      3564      3562      3565
      3565      3568      3569      3565      3568      3570      3565      3568      3571
      3566      3565      3567      3566      3565      3568      3567      3565      3568
      3568      3571      3572      3568      3571      3573      3568      3571      3574
      3569      3568      3570      3569      3568      3571      3570      3568      3571
      3571      3574      3575      3571      3574      3576      3571      3574      3577
      3572      3571      3573      3572      3571      3574      3573      3571      3574
      3574      3577      3578      3574      3577      3579      3574      3577      3580
      3575      3574      3576      3575      3574      3577      3576      3574      3577
      3577      3580      3581      3577      3580      3582      3577      3580      3583
      3578      3577      3579      3578      3577      3580      3579      3577      3580
      3580      3583      3584      3580      3583      3585      3580      3583      3586
      3581      3580      3582      3581      3580      3583      3582      3580      3583
      3583      3586      3587      3583      3586      3588      3583      3586      3589
      3584      3583      3585      3584      3583      3586      3585      3583      3586
      3586      3589      3590      3586      3589      3591      3586      3589      3592
      3587      3586      3588      3587      3586      3589      3588      3586      3589
      3589      3592      3593      3589      3592      3594      3589      3592      3595
      3590      3589      3591      3590      3589      3592      3591      3589      3592
      3592      3595      3596      3592      3595      3597      3592      3595      3598
      3593      3592      3594      3593      3592      3595      3594      3592      3595
      3595      3598      3599      3595      3598      3600      3595      3598      3601
      3596      3595      3597      3596      3595      3598      3597      3595      3598
      3598      3601      3602      3598      3601      3603      3598      3601      3604
      3599      3598      3600      3599      3598      3601      3600      3598      3601
      3602      3601      3603      3602      3601      3604      3603      3601      3604
      3605      3606      3607      3605      3606      3608      3605      3606      3609
      3605      3610      3611      3605      3610      3612      3605      3610      3613
      3605      3614      3615      3605      3614      3616      3605      3614      3617
      3605      3618      3619      3605      3618      3620      3605      3618      3621
      3606      3605      3610      3606      3605      3614      3606      3605      3618
      3607      3606      3608      3607      3606      3609      3608      3606      3609
      3610      3605      3614      3610      3605      3618      3611      3610      3612
      3611      3610      3613      3612      3610      3613      3614      3605      3618
      3615      3614      3616      3615      3614      3617      3616      3614      3617
      3618      3621      3622      3618      3621      3623      3618      3621      3627
      3619      3618      3620      3619      3618      3621      3620      3618      3621
      3621      3627      3624      3622      3621      3623      3622      3621      3627
      3623      3621      3627      3624      3628      3629      3625      3624      3626
      3625      3624      3627      3625      3624      3628      3626      3624      3627
      3626      3624      3628      3627      3624      3628      3628      3629      3630
      3628      3629      3631      3628      3629      3632      3629      3632      3633
      3629      3632      3634      3629      3632      3640      3630      3629      3631
      3630      3629      3632      3631      3629      3632      3632      3634      3635
      3632      3640      3641      3632      3640      3642      3632      3640      3643
      3633      3632      3634      3633      3632      3640      3634      3632      3640
      3634      3635      3636      3634      3635      3637      3635      3637      3638
      3635      3637      3639      3635      3637      3649      3636      3635      3637
      3637      3649      3650      3637      3649      3651      3637      3649      3652
      3638      3637      3639      3638      3637      3649      3639      3637      3649
      3640      3643      3644      3641      3640      3642      3641      3640      3643
      3642      3640      3643      3643      3644      3645      3643      3644      3646
      3644      3646      3647      3644      3646      3648      3644      3646      3694
      3645      3644      3646      3646      3694      3695      3646      3694      3696
      3646      3694      3697      3647      3646      3648      3647      3646      3694
      3648      3646      3694      3649      3652      3653      3649      3652      3654
      3649      3652      3655      3650      3649      3651      3650      3649      3652
      3651      3649      3652      3652      3655      3656      3652      3655      3657
      3652      3655      3658      3653      3652      3654      3653      3652      3655
      3654      3652      3655      3655      3658      3659      3655      3658      3660
      3655      3658      3661      3656      3655      3657      3656      3655      3658
      3657      3655      3658      3658      3661      3662      3658      3661      3663
      3658      3661      3664      3659      3658      3660      3659      3658      3661
      3660      3658      3661      3661      3664      3665      3661      3664      3666
      3661      3664      3667      3662      3661      3663      3662      3661      3664
      3663      3661      3664      3664      3667      3668      3664      3667      3669
      3665      3664      3666      3665      3664      3667      3666      3664      3667
      3667      3669      3670      3667      3669      3671      3668      3667      3669
      3669      3671      3672      3669      3671      3673      3669      3671      3674
      3670      3669      3671      3671      3674      3675      3671      3674      3676
      3672      3671      3673      3672      3671      3674      3673      3671      3674
      3674      3676      3677      3674      3676      3678      3675      3674      3676
      3676      3678      3679      3676      3678      3680      3676      3678      3681
      3677      3676      3678      3678      3681      3682      3678      3681      3683
      3678      3681      3684      3679      3678      3680      3679      3678      3681
      3680      3678      3681      3681      3684      3685      3681      3684      3686
      3681      3684      3687      3682      3681      3683      3682      3681      3684
      3683      3681      3684      3684      3687      3688      3684      3687      3689
      3684      3687      3690      3685      3684      3686      3685      3684      3687
      3686      3684      3687      3687      3690      3691      3687      3690      3692
      3687      3690      3693      3688      3687      3689      3688      3687      3690
      3689      3687      3690      3691      3690      3692      3691      3690      3693
      3692      3690      3693      3694      3697      3698      3694      3697      3699
      3694      3697      3700      3695      3694      3696      3695      3694      3697
      3696      3694      3697      3697      3700      3701      3697      3700      3702
      3697      3700      3703      3698      3697      3699      3698      3697      3700
      3699      3697      3700      3700      3703      3704      3700      3703      3705
      3700      3703      3706      3701      3700      3702      3701      3700      3703
      3702      3700      3703      3703      3706      3707      3703      3706      3708
      3703      3706      3709      3704      3703      3705      3704      3703      3706
      3705      3703      3706      3706      3709      3710      3706      3709      3711
      3706      3709      3712      3707      3706      3708      3707      3706      3709
      3708      3706      3709      3709      3712      3713      3709      3712      3714
      3709      3712      3715      3710      3709      3711      3710      3709      3712
      3711      3709      3712      3712      3715      3716      3712      3715      3717
      3712      3715      3718      3713      3712      3714      3713      3712      3715
      3714      3712      3715      3715      3718      3719      3715      3718      3720
      3715      3718      3721      3716      3715      3717      3716      3715      3718
      3717      3715      3718      3718      3721      3722      3718      3721      3723
      3718      3721      3724      3719      3718      3720      3719      3718      3721
      3720      3718      3721      3721      3724      3725      3721      3724      3726
      3721      3724      3727      3722      3721      3723      3722      3721      3724
      3723      3721      3724      3724      3727      3728      3724      3727      3729
      3724      3727      3730      3725      3724      3726      3725      3724      3727
      3726      3724      3727      3727      3730      3731      3727      3730      3732
      3727      3730      3733      3728      3727      3729      3728      3727      3730
      3729      3727      3730      3730      3733      3734      3730      3733      3735
      3730      3733      3736      3731      3730      3732      3731      3730      3733
      3732      3730      3733      3733      3736      3737      3733      3736      3738
      3733      3736      3739      3734      3733      3735      3734      3733      3736
      3735      3733      3736      3736      3739      3740      3736      3739      3741
      3736      3739      3742      3737      3736      3738      3737      3736      3739
      3738      3736      3739      3740      3739      3741      3740      3739      3742
      3741      3739      3742      3743      3747      3748      3743      3747      3749
      3743      3747      3750      3744      3743      3745      3744      3743      3746
      3744      3743      3747      3745      3743      3746      3745      3743      3747
      3746      3743      3747      3747      3750      3751      3747      3750      3752
      3747      3750      3756      3748      3747      3749      3748      3747      3750
      3749      3747      3750      3750      3756      3753      3751      3750      3752
      3751      3750      3756      3752      3750      3756      3753      3757      3758
      3754      3753      3755      3754      3753      3756      3754      3753      3757
      3755      3753      3756      3755      3753      3757      3756      3753      3757
      3757      3758      3759      3757      3758      3760      3757      3758      3761
      3758      3761      3762      3758      3761      3763      3758      3761      3769
      3759      3758      3760      3759      3758      3761      3760      3758      3761
      3761      3763      3764      3761      3769      3770      3761      3769      3771
      3761      3769      3772      3762      3761      3763      3762      3761      3769
      3763      3761      3769      3763      3764      3765      3763      3764      3766
      3764      3766      3767      3764      3766      3768      3764      3766      3778
      3765      3764      3766      3766      3778      3779      3766      3778      3780
      3766      3778      3781      3767      3766      3768      3767      3766      3778
      3768      3766      3778      3769      3772      3773      3770      3769      3771
      3770      3769      3772      3771      3769      3772      3772      3773      3774
      3772      3773      3775      3773      3775      3776      3773      3775      3777
      3773      3775      3825      3774      3773      3775      3775      3825      3826
      3775      3825      3827      3775      3825      3828      3776      3775      3777
      3776      3775      3825      3777      3775      3825      3778      3781      3782
      3778      3781      3783      3778      3781      3784      3779      3778      3780
      3779      3778      3781      3780      3778      3781      3781      3784      3785
      3781      3784      3786      3781      3784      3787      3782      3781      3783
      3782      3781      3784      3783      3781      3784      3784      3787      3788
      3784      3787      3789      3784      3787      3790      3785      3784      3786
      3785      3784      3787      3786      3784      3787      3787      3790      3791
      3787      3790      3792      3787      3790      3793      3788      3787      3789
      3788      3787      3790      3789      3787      3790      3790      3793      3794
      3790      3793      3795      3790      3793      3796      3791      3790      3792
      3791      3790      3793      3792      3790      3793      3793      3796      3797
      3793      3796      3798      3794      3793      3795      3794      3793      3796
      3795      3793      3796      3796      3798      3799      3796      3798      3800
      3797      3796      3798      3798      3800      3801      3798      3800      3802
      3798      3800      3803      3799      3798      3800      3800      3803      3804
      3800      3803      3805      3800      3803      3806      3801      3800      3802
      3801      3800      3803      3802      3800      3803      3803      3806      3807
      3803      3806      3808      3803      3806      3809      3804      3803      3805
      3804      3803      3806      3805      3803      3806      3806      3809      3810
      3806      3809      3811      3806      3809      3812      3807      3806      3808
      3807      3806      3809      3808      3806      3809      3809      3812      3813
      3809      3812      3814      3809      3812      3815      3810      3809      3811
      3810      3809      3812      3811      3809      3812      3812      3815      3816
      3812      3815      3817      3812      3815      3818      3813      3812      3814
      3813      3812      3815      3814      3812      3815      3815      3818      3819
      3815      3818      3820      3815      3818      3821      3816      3815      3817
      3816      3815      3818      3817      3815      3818      3818      3821      3822
      3818      3821      3823      3818      3821      3824      3819      3818      3820
      3819      3818      3821      3820      3818      3821      3822      3821      3823
      3822      3821      3824      3823      3821      3824      3825      3828      3829
      3825      3828      3830      3825      3828      3831      3826      3825      3827
      3826      3825      3828      3827      3825      3828      3828      3831      3832
      3828      3831      3833      3828      3831      3834      3829      3828      3830
      3829      3828      3831      3830      3828      3831      3831      3834      3835
      3831      3834      3836      3831      3834      3837      3832      3831      3833
      3832      3831      3834      3833      3831      3834      3834      3837      3838
      3834      3837      3839      3834      3837      3840      3835      3834      3836
      3835      3834      3837      3836      3834      3837      3837      3840      3841
      3837      3840      3842      3837      3840      3843      3838      3837      3839
      3838      3837      3840      3839      3837      3840      3840      3843      3844
      3840      3843      3845      3840      3843      3846      3841      3840      3842
      3841      3840      3843      3842      3840      3843      3843      3846      3847
      3843      3846      3848      3843      3846      3849      3844      3843      3845
      3844      3843      3846      3845      3843      3846      3846      3849      3850
      3846      3849      3851      3846      3849      3852      3847      3846      3848
      3847      3846      3849      3848      3846      3849      3849      3852      3853
      3849      3852      3854      3849      3852      3855      3850      3849      3851
      3850      3849      3852      3851      3849      3852      3852      3855      3856
      3852      3855      3857      3852      3855      3858      3853      3852      3854
      3853      3852      3855      3854      3852      3855      3855      3858      3859
      3855      3858      3860      3855      3858      3861      3856      3855      3857
      3856      3855      3858      3857      3855      3858      3858      3861      3862
      3858      3861      3863      3858      3861      3864      3859      3858      3860
      3859      3858      3861      3860      3858      3861      3861      3864      3865
      3861      3864      3866      3861      3864      3867      3862      3861      3863
      3862      3861      3864      3863      3861      3864      3864      3867      3868
      3864      3867      3869      3864      3867      3870      3865      3864      3866
      3865      3864      3867      3866      3864      3867      3867      3870      3871
      3867      3870      3872      3867      3870      3873      3868      3867      3869
      3868      3867      3870      3869      3867      3870      3871      3870      3872
      3871      3870      3873      3872      3870      3873      3874      3876      3877
      3874      3878      3879      3874      3878      3880      3874      3878      3882
      3874      3894      3890      3874      3894      3895      3874      3894      3899
      3875      3874      3876      3875      3874      3878      3875      3874      3894
      3876      3874      3878      3876      3874      3894      3878      3874      3894
      3878      3880      3881      3878      3882      3883      3878      3882      3884
      3878      3882      3886      3879      3878      3880      3879      3878      3882
      3880      3878      3882      3882      3884      3885      3882      3886      3887
      3882      3886      3888      3882      3886      3890      3883      3882      3884
      3883      3882      3886      3884      3882      3886      3886      3888      3889
      3886      3890      3891      3886      3890      3892      3886      3890      3894
      3887      3886      3888      3887      3886      3890      3888      3886      3890
      3890      3892      3893      3890      3894      3895      3890      3894      3899
      3891      3890      3892      3891      3890      3894      3892      3890      3894
      3894      3899      3896      3895      3894      3899      3896      3900      3901
      3897      3896      3898      3897      3896      3899      3897      3896      3900
      3898      3896      3899      3898      3896      3900      3899      3896      3900
      3900      3901      3902      3900      3901      3903      3900      3901      3904
      3901      3904      3905      3901      3904      3906      3901      3904      3912
      3902      3901      3903      3902      3901      3904      3903      3901      3904
      3904      3906      3907      3904      3912      3913      3904      3912      3914
      3904      3912      3915      3905      3904      3906      3905      3904      3912
      3906      3904      3912      3906      3907      3908      3906      3907      3909
      3907      3909      3910      3907      3909      3911      3907      3909      3921
      3908      3907      3909      3909      3921      3922      3909      3921      3923
      3909      3921      3924      3910      3909      3911      3910      3909      3921
      3911      3909      3921      3912      3915      3916      3913      3912      3914
      3913      3912      3915      3914      3912      3915      3915      3916      3917
      3915      3916      3918      3916      3918      3919      3916      3918      3920
      3916      3918      3968      3917      3916      3918      3918      3968      3969
      3918      3968      3970      3918      3968      3971      3919      3918      3920
      3919      3918      3968      3920      3918      3968      3921      3924      3925
      3921      3924      3926      3921      3924      3927      3922      3921      3923
      3922      3921      3924      3923      3921      3924      3924      3927      3928
      3924      3927      3929      3925      3924      3926      3925      3924      3927
      3926      3924      3927      3927      3929      3930      3927      3929      3931
      3928      3927      3929      3929      3931      3932      3929      3931      3933
      3929      3931      3934      3930      3929      3931      3931      3934      3935
      3931      3934      3936      3932      3931      3933      3932      3931      3934
      3933      3931      3934      3934      3936      3937      3934      3936      3938
      3935      3934      3936      3936      3938      3939      3936      3938      3940
      3936      3938      3941      3937      3936      3938      3938      3941      3942
      3938      3941      3943      3939      3938      3940      3939      3938      3941
      3940      3938      3941      3941      3943      3944      3941      3943      3945
      3942      3941      3943      3943      3945      3946      3943      3945      3947
      3943      3945      3948      3944      3943      3945      3945      3948      3949
      3945      3948      3950      3946      3945      3947      3946      3945      3948
      3947      3945      3948      3948      3950      3951      3948      3950      3952
      3949      3948      3950      3950      3952      3953      3950      3952      3954
      3950      3952      3955      3951      3950      3952      3952      3955      3956
      3952      3955      3957      3952      3955      3958      3953      3952      3954
      3953      3952      3955      3954      3952      3955      3955      3958      3959
      3955      3958      3960      3955      3958      3961      3956      3955      3957
      3956      3955      3958      3957      3955      3958      3958      3961      3962
      3958      3961      3963      3958      3961      3964      3959      3958      3960
      3959      3958      3961      3960      3958      3961      3961      3964      3965
      3961      3964      3966      3961      3964      3967      3962      3961      3963
      3962      3961      3964      3963      3961      3964      3965      3964      3966
      3965      3964      3967      3966      3964      3967      3968      3971      3972
      3968      3971      3973      3968      3971      3974      3969      3968      3970
      3969      3968      3971      3970      3968      3971      3971      3974      3975
      3971      3974      3976      3971      3974      3977      3972      3971      3973
      3972      3971      3974      3973      3971      3974      3974      3977      3978
      3974      3977      3979      3974      3977      3980      3975      3974      3976
      3975      3974      3977      3976      3974      3977      3977      3980      3981
      3977      3980      3982      3977      3980      3983      3978      3977      3979
      3978      3977      3980      3979      3977      3980      3980      3983      3984
      3980      3983      3985      3980      3983      3986      3981      3980      3982
      3981      3980      3983      3982      3980      3983      3983      3986      3987
      3983      3986      3988      3983      3986      3989      3984      3983      3985
      3984      3983      3986      3985      3983      3986      3986      3989      3990
      3986      3989      3991      3986      3989      3992      3987      3986      3988
      3987      3986      3989      3988      3986      3989      3989      3992      3993
      3989      3992      3994      3989      3992      3995      3990      3989      3991
      3990      3989      3992      3991      3989      3992      3992      3995      3996
      3992      3995      3997      3992      3995      3998      3993      3992      3994
      3993      3992      3995      3994      3992      3995      3995      3998      3999
      3995      3998      4000      3995      3998      4001      3996      3995      3997
      3996      3995      3998      3997      3995      3998      3998      4001      4002
      3998      4001      4003      3998      4001      4004      3999      3998      4000
      3999      3998      4001      4000      3998      4001      4001      4004      4005
      4001      4004      4006      4001      4004      4007      4002      4001      4003
      4002      4001      4004      4003      4001      4004      4004      4007      4008
      4004      4007      4009      4004      4007      4010      4005      4004      4006
      4005      4004      4007      4006      4004      4007      4007      4010      4011
      4007      4010      4012      4007      4010      4013      4008      4007      4009
      4008      4007      4010      4009      4007      4010      4010      4013      4014
      4010      4013      4015      4010      4013      4016      4011      4010      4012
      4011      4010      4013      4012      4010      4013      4014      4013      4015
      4014      4013      4016      4015      4013      4016      4017      4019      4020
      4017      4021      4022      4017      4021      4023      4017      4021      4024
      4017      4063      4060      4017      4063      4064      4017      4063      4065
      4018      4017      4019      4018      4017      4021      4018      4017      4063
      4019      4017      4021      4019      4017      4063      4021      4017      4063
      4021      4024      4025      4021      4024      4055      4022      4021      4023
      4022      4021      4024      4023      4021      4024      4024      4025      4026
      4024      4025      4027      4024      4055      4053      4024      4055      4056
      4024      4055      4060      4025      4024      4055      4025      4027      4028
      4025      4027      4029      4025      4027      4030      4026      4025      4027
      4027      4030      4031      4027      4030      4032      4027      4030      4053
      4028      4027      4029      4028      4027      4030      4029      4027      4030
      4030      4032      4033      4030      4032      4034      4030      4032      4042
      4030      4053      4050      4030      4053      4054      4030      4053      4055
      4031      4030      4032      4031      4030      4053      4032      4030      4053
      4032      4034      4035      4032      4034      4036      4032      4034      4037
      4032      4042      4040      4032      4042      4043      4032      4042      4047
      4033      4032      4034      4033      4032      4042      4034      4032      4042
      4034      4037      4038      4034      4037      4039      4034      4037      4040
      4035      4034      4036      4035      4034      4037      4036      4034      4037
      4037      4040      4041      4037      4040      4042      4037      4040      4066
      4038      4037      4039      4038      4037      4040      4039      4037      4040
      4040      4042      4043      4040      4042      4047      4040      4066      4067
      4040      4066      4068      4040      4066      4072      4041      4040      4042
      4041      4040      4066      4042      4040      4066      4042      4043      4044
      4042      4043      4045      4042      4043      4046      4042      4047      4048
      4042      4047      4049      4042      4047      4050      4043      4042      4047
      4044      4043      4045      4044      4043      4046      4045      4043      4046
      4047      4050      4051      4047      4050      4052      4047      4050      4053
      4048      4047      4049      4048      4047      4050      4049      4047      4050
      4050      4053      4054      4050      4053      4055      4051      4050      4052
      4051      4050      4053      4052      4050      4053      4053      4055      4056
      4053      4055      4060      4054      4053      4055      4055      4056      4057
      4055      4056      4058      4055      4056      4059      4055      4060      4061
      4055      4060      4062      4055      4060      4063      4056      4055      4060
      4057      4056      4058      4057      4056      4059      4058      4056      4059
      4060      4063      4064      4060      4063      4065      4061      4060      4062
      4061      4060      4063      4062      4060      4063      4064      4063      4065
      4066      4068      4069      4066      4068      4070      4066      4068      4071
      4066      4072      4073      4066      4072      4074      4066      4072      4075
      4067      4066      4068      4067      4066      4072      4068      4066      4072
      4069      4068      4070      4069      4068      4071      4070      4068      4071
      4072      4075      4076      4072      4075      4077      4072      4075      4078
      4073      4072      4074      4073      4072      4075      4074      4072      4075
      4075      4078      4079      4075      4078      4080      4075      4078      4081
      4076      4075      4077      4076      4075      4078      4077      4075      4078
      4078      4081      4082      4078      4081      4083      4078      4081      4087
      4079      4078      4080      4079      4078      4081      4080      4078      4081
      4081      4083      4084      4081      4083      4085      4081      4083      4086
      4081      4087      4088      4081      4087      4089      4081      4087      4090
      4082      4081      4083      4082      4081      4087      4083      4081      4087
      4084      4083      4085      4084      4083      4086      4085      4083      4086
      4088      4087      4089      4088      4087      4090      4089      4087      4090
      4091      4092      4093      4091      4092      4094      4091      4092      4095
      4091      4096      4097      4091      4096      4098      4091      4096      4099
      4091      4100      4101      4091      4100      4102      4091      4100      4103
      4091      4104      4105      4091      4104      4106      4091      4104      4107
      4092      4091      4096      4092      4091      4100      4092      4091      4104
      4093      4092      4094      4093      4092      4095      4094      4092      4095
      4096      4091      4100      4096      4091      4104      4097      4096      4098
      4097      4096      4099      4098      4096      4099      4100      4091      4104
      4101      4100      4102      4101      4100      4103      4102      4100      4103
      4104      4107      4108      4104      4107      4109      4104      4107      4114
      4105      4104      4106      4105      4104      4107      4106      4104      4107
      4107      4114      4110      4108      4107      4109      4108      4107      4114
      4109      4107      4114      4110      4113      4115      4111      4110      4112
      4111      4110      4113      4111      4110      4114      4112      4110      4113
      4112      4110      4114      4113      4110      4114      4113      4115      4116
      4113      4115      4117      4113      4115      4120      4115      4120      4118
      4115      4120      4121      4115      4120      4122      4116      4115      4117
      4116      4115      4120      4117      4115      4120      4118      4120      4121
      4118      4120      4122      4118      4170      4171      4118      4170      4172
      4119      4118      4120      4119      4118      4170      4120      4118      4170
      4120      4122      4123      4120      4122      4124      4120      4122      4126
      4121      4120      4122      4122      4124      4125      4122      4126      4127
      4122      4126      4128      4123      4122      4124      4123      4122      4126
      4124      4122      4126      4126      4128      4129      4126      4128      4130
      4127      4126      4128      4128      4130      4131      4128      4130      4132
      4128      4130      4133      4129      4128      4130      4130      4133      4134
      4130      4133      4135      4130      4133      4136      4131      4130      4132
      4131      4130      4133      4132      4130      4133      4133      4136      4137
      4133      4136      4138      4133      4136      4139      4134      4133      4135
      4134      4133      4136      4135      4133      4136      4136      4139      4140
      4136      4139      4141      4136      4139      4142      4137      4136      4138
      4137      4136      4139      4138      4136      4139      4139      4142      4143
      4139      4142      4144      4139      4142      4145      4140      4139      4141
      4140      4139      4142      4141      4139      4142      4142      4145      4146
      4142      4145      4147      4142      4145      4148      4143      4142      4144
      4143      4142      4145      4144      4142      4145      4145      4148      4149
      4145      4148      4150      4145      4148      4151      4146      4145      4147
      4146      4145      4148      4147      4145      4148      4148      4151      4152
      4148      4151      4153      4148      4151      4154      4149      4148      4150
      4149      4148      4151      4150      4148      4151      4151      4154      4155
      4151      4154      4156      4151      4154      4157      4152      4151      4153
      4152      4151      4154      4153      4151      4154      4154      4157      4158
      4154      4157      4159      4154      4157      4160      4155      4154      4156
      4155      4154      4157      4156      4154      4157      4157      4160      4161
      4157      4160      4162      4157      4160      4163      4158      4157      4159
      4158      4157      4160      4159      4157      4160      4160      4163      4164
      4160      4163      4165      4160      4163      4166      4161      4160      4162
      4161      4160      4163      4162      4160      4163      4163      4166      4167
      4163      4166      4168      4163      4166      4169      4164      4163      4165
      4164      4163      4166      4165      4163      4166      4167      4166      4168
      4167      4166      4169      4168      4166      4169      4170      4172      4173
      4170      4172      4174      4170      4172      4175      4171      4170      4172
      4172      4175      4176      4172      4175      4177      4172      4175      4178
      4173      4172      4174      4173      4172      4175      4174      4172      4175
      4175      4178      4179      4175      4178      4180      4175      4178      4181
      4176      4175      4177      4176      4175      4178      4177      4175      4178
      4178      4181      4182      4178      4181      4183      4178      4181      4184
      4179      4178      4180      4179      4178      4181      4180      4178      4181
      4181      4184      4185      4181      4184      4186      4181      4184      4187
      4182      4181      4183      4182      4181      4184      4183      4181      4184
      4184      4187      4188      4184      4187      4189      4184      4187      4190
      4185      4184      4186      4185      4184      4187      4186      4184      4187
      4187      4190      4191      4187      4190      4192      4187      4190      4193
      4188      4187      4189      4188      4187      4190      4189      4187      4190
      4190      4193      4194      4190      4193      4195      4191      4190      4192
      4191      4190      4193      4192      4190      4193      4193      4195      4196
      4193      4195      4197      4194      4193      4195      4195      4197      4198
      4195      4197      4199      4195      4197      4200      4196      4195      4197
      4197      4200      4201      4197      4200      4202      4197      4200      4203
      4198      4197      4199      4198      4197      4200      4199      4197      4200
      4200      4203      4204      4200      4203      4205      4200      4203      4206
      4201      4200      4202      4201      4200      4203      4202      4200      4203
      4203      4206      4207      4203      4206      4208      4203      4206      4209
      4204      4203      4205      4204      4203      4206      4205      4203      4206
      4206      4209      4210      4206      4209      4211      4206      4209      4212
      4207      4206      4208      4207      4206      4209      4208      4206      4209
      4209      4212      4213      4209      4212      4214      4209      4212      4215
      4210      4209      4211      4210      4209      4212      4211      4209      4212
      4212      4215      4216      4212      4215      4217      4212      4215      4218
      4213      4212      4214      4213      4212      4215      4214      4212      4215
      4215      4218      4219      4215      4218      4220      4215      4218      4221
      4216      4215      4217      4216      4215      4218      4217      4215      4218
      4219      4218      4220      4219      4218      4221      4220      4218      4221
      4222      4224      4225      4222      4226      4227      4222      4226      4228
      4222      4226      4229      4222      4268      4265      4222      4268      4269
      4222      4268      4270      4223      4222      4224      4223      4222      4226
      4223      4222      4268      4224      4222      4226      4224      4222      4268
      4226      4222      4268      4226      4229      4230      4226      4229      4260
      4227      4226      4228      4227      4226      4229      4228      4226      4229
      4229      4230      4231      4229      4230      4232      4229      4260      4258
      4229      4260      4261      4229      4260      4265      4230      4229      4260
      4230      4232      4233      4230      4232      4234      4230      4232      4235
      4231      4230      4232      4232      4235      4236      4232      4235      4237
      4232      4235      4258      4233      4232      4234      4233      4232      4235
      4234      4232      4235      4235      4237      4238      4235      4237      4239
      4235      4237      4247      4235      4258      4255      4235      4258      4259
      4235      4258      4260      4236      4235      4237      4236      4235      4258
      4237      4235      4258      4237      4239      4240      4237      4239      4241
      4237      4239      4242      4237      4247      4245      4237      4247      4248
      4237      4247      4252      4238      4237      4239      4238      4237      4247
      4239      4237      4247      4239      4242      4243      4239      4242      4244
      4239      4242      4245      4240      4239      4241      4240      4239      4242
      4241      4239      4242      4242      4245      4246      4242      4245      4247
      4242      4245      4271      4243      4242      4244      4243      4242      4245
      4244      4242      4245      4245      4247      4248      4245      4247      4252
      4245      4271      4272      4245      4271      4273      4245      4271      4277
      4246      4245      4247      4246      4245      4271      4247      4245      4271
      4247      4248      4249      4247      4248      4250      4247      4248      4251
      4247      4252      4253      4247      4252      4254      4247      4252      4255
      4248      4247      4252      4249      4248      4250      4249      4248      4251
      4250      4248      4251      4252      4255      4256      4252      4255      4257
      4252      4255      4258      4253      4252      4254      4253      4252      4255
      4254      4252      4255      4255      4258      4259      4255      4258      4260
      4256      4255      4257      4256      4255      4258      4257      4255      4258
      4258      4260      4261      4258      4260      4265      4259      4258      4260
      4260      4261      4262      4260      4261      4263      4260      4261      4264
      4260      4265      4266      4260      4265      4267      4260      4265      4268
      4261      4260      4265      4262      4261      4263      4262      4261      4264
      4263      4261      4264      4265      4268      4269      4265      4268      4270
      4266      4265      4267      4266      4265      4268      4267      4265      4268
      4269      4268      4270      4271      4273      4274      4271      4273      4275
      4271      4273      4276      4271      4277      4278      4271      4277      4279
      4271      4277      4280      4272      4271      4273      4272      4271      4277
      4273      4271      4277      4274      4273      4275      4274      4273      4276
      4275      4273      4276      4277      4280      4281      4277      4280      4282
      4277      4280      4283      4278      4277      4279      4278      4277      4280
      4279      4277      4280      4280      4283      4284      4280      4283      4285
      4280      4283      4286      4281      4280      4282      4281      4280      4283
      4282      4280      4283      4283      4286      4287      4283      4286      4288
      4283      4286      4292      4284      4283      4285      4284      4283      4286
      4285      4283      4286      4286      4288      4289      4286      4288      4290
      4286      4288      4291      4286      4292      4293      4286      4292      4294
      4286      4292      4295      4287      4286      4288      4287      4286      4292
      4288      4286      4292      4289      4288      4290      4289      4288      4291
      4290      4288      4291      4293      4292      4294      4293      4292      4295
      4294      4292      4295      4296      4300      4301      4296      4300      4302
      4296      4300      4303      4297      4296      4298      4297      4296      4299
      4297      4296      4300      4298      4296      4299      4298      4296      4300
      4299      4296      4300      4300      4303      4304      4300      4303      4305
      4300      4303      4309      4301      4300      4302      4301      4300      4303
      4302      4300      4303      4303      4309      4306      4304      4303      4305
      4304      4303      4309      4305      4303      4309      4306      4310      4311
      4307      4306      4308      4307      4306      4309      4307      4306      4310
      4308      4306      4309      4308      4306      4310      4309      4306      4310
      4310      4311      4312      4310      4311      4313      4310      4311      4314
      4311      4314      4315      4311      4314      4316      4311      4314      4322
      4312      4311      4313      4312      4311      4314      4313      4311      4314
      4314      4316      4317      4314      4322      4323      4314      4322      4324
      4314      4322      4325      4315      4314      4316      4315      4314      4322
      4316      4314      4322      4316      4317      4318      4316      4317      4319
      4317      4319      4320      4317      4319      4321      4317      4319      4331
      4318      4317      4319      4319      4331      4332      4319      4331      4333
      4319      4331      4334      4320      4319      4321      4320      4319      4331
      4321      4319      4331      4322      4325      4326      4323      4322      4324
      4323      4322      4325      4324      4322      4325      4325      4326      4327
      4325      4326      4328      4326      4328      4329      4326      4328      4330
      4326      4328      4378      4327      4326      4328      4328      4378      4379
      4328      4378      4380      4328      4378      4381      4329      4328      4330
      4329      4328      4378      4330      4328      4378      4331      4334      4335
      4331      4334      4336      4331      4334      4337      4332      4331      4333
      4332      4331      4334      4333      4331      4334      4334      4337      4338
      4334      4337      4339      4335      4334      4336      4335      4334      4337
      4336      4334      4337      4337      4339      4340      4337      4339      4341
      4338      4337      4339      4339      4341      4342      4339      4341      4343
      4339      4341      4344      4340      4339      4341      4341      4344      4345
      4341      4344      4346      4342      4341      4343      4342      4341      4344
      4343      4341      4344      4344      4346      4347      4344      4346      4348
      4345      4344      4346      4346      4348      4349      4346      4348      4350
      4346      4348      4351      4347      4346      4348      4348      4351      4352
      4348      4351      4353      4349      4348      4350      4349      4348      4351
      4350      4348      4351      4351      4353      4354      4351      4353      4355
      4352      4351      4353      4353      4355      4356      4353      4355      4357
      4353      4355      4358      4354      4353      4355      4355      4358      4359
      4355      4358      4360      4356      4355      4357      4356      4355      4358
      4357      4355      4358      4358      4360      4361      4358      4360      4362
      4359      4358      4360      4360      4362      4363      4360      4362      4364
      4360      4362      4365      4361      4360      4362      4362      4365      4366
      4362      4365      4367      4362      4365      4368      4363      4362      4364
      4363      4362      4365      4364      4362      4365      4365      4368      4369
      4365      4368      4370      4365      4368      4371      4366      4365      4367
      4366      4365      4368      4367      4365      4368      4368      4371      4372
      4368      4371      4373      4368      4371      4374      4369      4368      4370
      4369      4368      4371      4370      4368      4371      4371      4374      4375
      4371      4374      4376      4371      4374      4377      4372      4371      4373
      4372      4371      4374      4373      4371      4374      4375      4374      4376
      4375      4374      4377      4376      4374      4377      4378      4381      4382
      4378      4381      4383      4378      4381      4384      4379      4378      4380
      4379      4378      4381      4380      4378      4381      4381      4384      4385
      4381      4384      4386      4381      4384      4387      4382      4381      4383
      4382      4381      4384      4383      4381      4384      4384      4387      4388
      4384      4387      4389      4384      4387      4390      4385      4384      4386
      4385      4384      4387      4386      4384      4387      4387      4390      4391
      4387      4390      4392      4387      4390      4393      4388      4387      4389
      4388      4387      4390      4389      4387      4390      4390      4393      4394
      4390      4393      4395      4390      4393      4396      4391      4390      4392
      4391      4390      4393      4392      4390      4393      4393      4396      4397
      4393      4396      4398      4393      4396      4399      4394      4393      4395
      4394      4393      4396      4395      4393      4396      4396      4399      4400
      4396      4399      4401      4396      4399      4402      4397      4396      4398
      4397      4396      4399      4398      4396      4399      4399      4402      4403
      4399      4402      4404      4399      4402      4405      4400      4399      4401
      4400      4399      4402      4401      4399      4402      4402      4405      4406
      4402      4405      4407      4402      4405      4408      4403      4402      4404
      4403      4402      4405      4404      4402      4405      4405      4408      4409
      4405      4408      4410      4405      4408      4411      4406      4405      4407
      4406      4405      4408      4407      4405      4408      4408      4411      4412
      4408      4411      4413      4408      4411      4414      4409      4408      4410
      4409      4408      4411      4410      4408      4411      4411      4414      4415
      4411      4414      4416      4411      4414      4417      4412      4411      4413
      4412      4411      4414      4413      4411      4414      4414      4417      4418
      4414      4417      4419      4414      4417      4420      4415      4414      4416
      4415      4414      4417      4416      4414      4417      4417      4420      4421
      4417      4420      4422      4417      4420      4423      4418      4417      4419
      4418      4417      4420      4419      4417      4420      4420      4423      4424
      4420      4423      4425      4420      4423      4426      4421      4420      4422
      4421      4420      4423      4422      4420      4423      4424      4423      4425
      4424      4423      4426      4425      4423      4426      4427      4429      4430
      4427      4431      4432      4427      4431      4433      4427      4431      4434
      4427      4473      4470      4427      4473      4474      4427      4473      4475
      4428      4427      4429      4428      4427      4431      4428      4427      4473
      4429      4427      4431      4429      4427      4473      4431      4427      4473
      4431      4434      4435      4431      4434      4465      4432      4431      4433
      4432      4431      4434      4433      4431      4434      4434      4435      4436
      4434      4435      4437      4434      4465      4463      4434      4465      4466
      4434      4465      4470      4435      4434      4465      4435      4437      4438
      4435      4437      4439      4435      4437      4440      4436      4435      4437
      4437      4440      4441      4437      4440      4442      4437      4440      4463
      4438      4437      4439      4438      4437      4440      4439      4437      4440
      4440      4442      4443      4440      4442      4444      4440      4442      4452
      4440      4463      4460      4440      4463      4464      4440      4463      4465
      4441      4440      4442      4441      4440      4463      4442      4440      4463
      4442      4444      4445      4442      4444      4446      4442      4444      4447
      4442      4452      4450      4442      4452      4453      4442      4452      4457
      4443      4442      4444      4443      4442      4452      4444      4442      4452
      4444      4447      4448      4444      4447      4449      4444      4447      4450
      4445      4444      4446      4445      4444      4447      4446      4444      4447
      4447      4450      4451      4447      4450      4452      4447      4450      4476
      4448      4447      4449      4448      4447      4450      4449      4447      4450
      4450      4452      4453      4450      4452      4457      4450      4476      4477
      4450      4476      4478      4450      4476      4482      4451      4450      4452
      4451      4450      4476      4452      4450      4476      4452      4453      4454
      4452      4453      4455      4452      4453      4456      4452      4457      4458
      4452      4457      4459      4452      4457      4460      4453      4452      4457
      4454      4453      4455      4454      4453      4456      4455      4453      4456
      4457      4460      4461      4457      4460      4462      4457      4460      4463
      4458      4457      4459      4458      4457      4460      4459      4457      4460
      4460      4463      4464      4460      4463      4465      4461      4460      4462
      4461      4460      4463      4462      4460      4463      4463      4465      4466
      4463      4465      4470      4464      4463      4465      4465      4466      4467
      4465      4466      4468      4465      4466      4469      4465      4470      4471
      4465      4470      4472      4465      4470      4473      4466      4465      4470
      4467      4466      4468      4467      4466      4469      4468      4466      4469
      4470      4473      4474      4470      4473      4475      4471      4470      4472
      4471      4470      4473      4472      4470      4473      4474      4473      4475
      4476      4478      4479      4476      4478      4480      4476      4478      4481
      4476      4482      4483      4476      4482      4484      4476      4482      4485
      4477      4476      4478      4477      4476      4482      4478      4476      4482
      4479      4478      4480      4479      4478      4481      4480      4478      4481
      4482      4485      4486      4482      4485      4487      4482      4485      4488
      4483      4482      4484      4483      4482      4485      4484      4482      4485
      4485      4488      4489      4485      4488      4490      4485      4488      4491
      4486      4485      4487      4486      4485      4488      4487      4485      4488
      4488      4491      4492      4488      4491      4493      4488      4491      4497
      4489      4488      4490      4489      4488      4491      4490      4488      4491
      4491      4493      4494      4491      4493      4495      4491      4493      4496
      4491      4497      4498      4491      4497      4499      4491      4497      4500
      4492      4491      4493      4492      4491      4497      4493      4491      4497
      4494      4493      4495      4494      4493      4496      4495      4493      4496
      4498      4497      4499      4498      4497      4500      4499      4497      4500
      4501      4503      4504      4501      4505      4506      4501      4505      4507
      4501      4505      4508      4501      4547      4544      4501      4547      4548
      4501      4547      4549      4502      4501      4503      4502      4501      4505
      4502      4501      4547      4503      4501      4505      4503      4501      4547
      4505      4501      4547      4505      4508      4509      4505      4508      4539
      4506      4505      4507      4506      4505      4508      4507      4505      4508
      4508      4509      4510      4508      4509      4511      4508      4539      4537
      4508      4539      4540      4508      4539      4544      4509      4508      4539
      4509      4511      4512      4509      4511      4513      4509      4511      4514
      4510      4509      4511      4511      4514      4515      4511      4514      4516
      4511      4514      4537      4512      4511      4513      4512      4511      4514
      4513      4511      4514      4514      4516      4517      4514      4516      4518
      4514      4516      4526      4514      4537      4534      4514      4537      4538
      4514      4537      4539      4515      4514      4516      4515      4514      4537
      4516      4514      4537      4516      4518      4519      4516      4518      4520
      4516      4518      4521      4516      4526      4524      4516      4526      4527
      4516      4526      4531      4517      4516      4518      4517      4516      4526
      4518      4516      4526      4518      4521      4522      4518      4521      4523
      4518      4521      4524      4519      4518      4520      4519      4518      4521
      4520      4518      4521      4521      4524      4525      4521      4524      4526
      4521      4524      4550      4522      4521      4523      4522      4521      4524
      4523      4521      4524      4524      4526      4527      4524      4526      4531
      4524      4550      4551      4524      4550      4552      4524      4550      4556
      4525      4524      4526      4525      4524      4550      4526      4524      4550
      4526      4527      4528      4526      4527      4529      4526      4527      4530
      4526      4531      4532      4526      4531      4533      4526      4531      4534
      4527      4526      4531      4528      4527      4529      4528      4527      4530
      4529      4527      4530      4531      4534      4535      4531      4534      4536
      4531      4534      4537      4532      4531      4533      4532      4531      4534
      4533      4531      4534      4534      4537      4538      4534      4537      4539
      4535      4534      4536      4535      4534      4537      4536      4534      4537
      4537      4539      4540      4537      4539      4544      4538      4537      4539
      4539      4540      4541      4539      4540      4542      4539      4540      4543
      4539      4544      4545      4539      4544      4546      4539      4544      4547
      4540      4539      4544      4541      4540      4542      4541      4540      4543
      4542      4540      4543      4544      4547      4548      4544      4547      4549
      4545      4544      4546      4545      4544      4547      4546      4544      4547
      4548      4547      4549      4550      4552      4553      4550      4552      4554
      4550      4552      4555      4550      4556      4557      4550      4556      4558
      4550      4556      4559      4551      4550      4552      4551      4550      4556
      4552      4550      4556      4553      4552      4554      4553      4552      4555
      4554      4552      4555      4556      4559      4560      4556      4559      4561
      4556      4559      4562      4557      4556      4558      4557      4556      4559
      4558      4556      4559      4559      4562      4563      4559      4562      4564
      4559      4562      4565      4560      4559      4561      4560      4559      4562
      4561      4559      4562      4562      4565      4566      4562      4565      4567
      4562      4565      4571      4563      4562      4564      4563      4562      4565
      4564      4562      4565      4565      4567      4568      4565      4567      4569
      4565      4567      4570      4565      4571      4572      4565      4571      4573
      4565      4571      4574      4566      4565      4567      4566      4565      4571
      4567      4565      4571      4568      4567      4569      4568      4567      4570
      4569      4567      4570      4572      4571      4573      4572      4571      4574
      4573      4571      4574      4575      4579      4580      4575      4579      4581
      4575      4579      4582      4576      4575      4577      4576      4575      4578
      4576      4575      4579      4577      4575      4578      4577      4575      4579
      4578      4575      4579      4579      4582      4583      4579      4582      4584
      4579      4582      4588      4580      4579      4581      4580      4579      4582
      4581      4579      4582      4582      4588      4585      4583      4582      4584
      4583      4582      4588      4584      4582      4588      4585      4589      4590
      4586      4585      4587      4586      4585      4588      4586      4585      4589
      4587      4585      4588      4587      4585      4589      4588      4585      4589
      4589      4590      4591      4589      4590      4592      4589      4590      4593
      4590      4593      4594      4590      4593      4595      4590      4593      4601
      4591      4590      4592      4591      4590      4593      4592      4590      4593
      4593      4595      4596      4593      4601      4602      4593      4601      4603
      4593      4601      4604      4594      4593      4595      4594      4593      4601
      4595      4593      4601      4595      4596      4597      4595      4596      4598
      4596      4598      4599      4596      4598      4600      4596      4598      4610
      4597      4596      4598      4598      4610      4611      4598      4610      4612
      4598      4610      4613      4599      4598      4600      4599      4598      4610
      4600      4598      4610      4601      4604      4605      4602      4601      4603
      4602      4601      4604      4603      4601      4604      4604      4605      4606
      4604      4605      4607      4605      4607      4608      4605      4607      4609
      4605      4607      4657      4606      4605      4607      4607      4657      4658
      4607      4657      4659      4607      4657      4660      4608      4607      4609
      4608      4607      4657      4609      4607      4657      4610      4613      4614
      4610      4613      4615      4610      4613      4616      4611      4610      4612
      4611      4610      4613      4612      4610      4613      4613      4616      4617
      4613      4616      4618      4613      4616      4619      4614      4613      4615
      4614      4613      4616      4615      4613      4616      4616      4619      4620
      4616      4619      4621      4616      4619      4622      4617      4616      4618
      4617      4616      4619      4618      4616      4619      4619      4622      4623
      4619      4622      4624      4619      4622      4625      4620      4619      4621
      4620      4619      4622      4621      4619      4622      4622      4625      4626
      4622      4625      4627      4622      4625      4628      4623      4622      4624
      4623      4622      4625      4624      4622      4625      4625      4628      4629
      4625      4628      4630      4626      4625      4627      4626      4625      4628
      4627      4625      4628      4628      4630      4631      4628      4630      4632
      4629      4628      4630      4630      4632      4633      4630      4632      4634
      4630      4632      4635      4631      4630      4632      4632      4635      4636
      4632      4635      4637      4632      4635      4638      4633      4632      4634
      4633      4632      4635      4634      4632      4635      4635      4638      4639
      4635      4638      4640      4635      4638      4641      4636      4635      4637
      4636      4635      4638      4637      4635      4638      4638      4641      4642
      4638      4641      4643      4638      4641      4644      4639      4638      4640
      4639      4638      4641      4640      4638      4641      4641      4644      4645
      4641      4644      4646      4641      4644      4647      4642      4641      4643
      4642      4641      4644      4643      4641      4644      4644      4647      4648
      4644      4647      4649      4644      4647      4650      4645      4644      4646
      4645      4644      4647      4646      4644      4647      4647      4650      4651
      4647      4650      4652      4647      4650      4653      4648      4647      4649
      4648      4647      4650      4649      4647      4650      4650      4653      4654
      4650      4653      4655      4650      4653      4656      4651      4650      4652
      4651      4650      4653      4652      4650      4653      4654      4653      4655
      4654      4653      4656      4655      4653      4656      4657      4660      4661
      4657      4660      4662      4657      4660      4663      4658      4657      4659
      4658      4657      4660      4659      4657      4660      4660      4663      4664
      4660      4663      4665      4660      4663      4666      4661      4660      4662
      4661      4660      4663      4662      4660      4663      4663      4666      4667
      4663      4666      4668      4663      4666      4669      4664      4663      4665
      4664      4663      4666      4665      4663      4666      4666      4669      4670
      4666      4669      4671      4666      4669      4672      4667      4666      4668
      4667      4666      4669      4668      4666      4669      4669      4672      4673
      4669      4672      4674      4669      4672      4675      4670      4669      4671
      4670      4669      4672      4671      4669      4672      4672      4675      4676
      4672      4675      4677      4672      4675      4678      4673      4672      4674
      4673      4672      4675      4674      4672      4675      4675      4678      4679
      4675      4678      4680      4675      4678      4681      4676      4675      4677
      4676      4675      4678      4677      4675      4678      4678      4681      4682
      4678      4681      4683      4678      4681      4684      4679      4678      4680
      4679      4678      4681      4680      4678      4681      4681      4684      4685
      4681      4684      4686      4681      4684      4687      4682      4681      4683
      4682      4681      4684      4683      4681      4684      4684      4687      4688
      4684      4687      4689      4684      4687      4690      4685      4684      4686
      4685      4684      4687      4686      4684      4687      4687      4690      4691
      4687      4690      4692      4687      4690      4693      4688      4687      4689
      4688      4687      4690      4689      4687      4690      4690      4693      4694
      4690      4693      4695      4690      4693      4696      4691      4690      4692
      4691      4690      4693      4692      4690      4693      4693      4696      4697
      4693      4696      4698      4693      4696      4699      4694      4693      4695
      4694      4693      4696      4695      4693      4696      4696      4699      4700
      4696      4699      4701      4696      4699      4702      4697      4696      4698
      4697      4696      4699      4698      4696      4699      4699      4702      4703
      4699      4702      4704      4699      4702      4705      4700      4699      4701
      4700      4699      4702      4701      4699      4702      4703      4702      4704
      4703      4702      4705      4704      4702      4705      4706      4707      4708
      4706      4707      4709      4706      4707      4710      4706      4711      4712
      4706      4711      4713      4706      4711      4714      4706      4715      4716
      4706      4715      4717      4706      4715      4718      4706      4719      4720
      4706      4719      4721      4706      4719      4722      4707      4706      4711
      4707      4706      4715      4707      4706      4719      4708      4707      4709
      4708      4707      4710      4709      4707      4710      4711      4706      4715
      4711      4706      4719      4712      4711      4713      4712      4711      4714
      4713      4711      4714      4715      4706      4719      4716      4715      4717
      4716      4715      4718      4717      4715      4718      4719      4722      4723
      4719      4722      4724      4719      4722      4728      4720      4719      4721
      4720      4719      4722      4721      4719      4722      4722      4728      4725
      4723      4722      4724      4723      4722      4728      4724      4722      4728
      4725      4729      4730      4726      4725      4727      4726      4725      4728
      4726      4725      4729      4727      4725      4728      4727      4725      4729
      4728      4725      4729      4729      4730      4731      4729      4730      4732
      4729      4730      4733      4730      4733      4734      4730      4733      4735
      4730      4733      4741      4731      4730      4732      4731      4730      4733
      4732      4730      4733      4733      4735      4736      4733      4741      4742
      4733      4741      4743      4733      4741      4744      4734      4733      4735
      4734      4733      4741      4735      4733      4741      4735      4736      4737
      4735      4736      4738      4736      4738      4739      4736      4738      4740
      4736      4738      4750      4737      4736      4738      4738      4750      4751
      4738      4750      4752      4738      4750      4753      4739      4738      4740
      4739      4738      4750      4740      4738      4750      4741      4744      4745
      4742      4741      4743      4742      4741      4744      4743      4741      4744
      4744      4745      4746      4744      4745      4747      4745      4747      4748
      4745      4747      4749      4745      4747      4795      4746      4745      4747
      4747      4795      4796      4747      4795      4797      4747      4795      4798
      4748      4747      4749      4748      4747      4795      4749      4747      4795
      4750      4753      4754      4750      4753      4755      4750      4753      4756
      4751      4750      4752      4751      4750      4753      4752      4750      4753
      4753      4756      4757      4753      4756      4758      4753      4756      4759
      4754      4753      4755      4754      4753      4756      4755      4753      4756
      4756      4759      4760      4756      4759      4761      4756      4759      4762
      4757      4756      4758      4757      4756      4759      4758      4756      4759
      4759      4762      4763      4759      4762      4764      4759      4762      4765
      4760      4759      4761      4760      4759      4762      4761      4759      4762
      4762      4765      4766      4762      4765      4767      4762      4765      4768
      4763      4762      4764      4763      4762      4765      4764      4762      4765
      4765      4768      4769      4765      4768      4770      4766      4765      4767
      4766      4765      4768      4767      4765      4768      4768      4770      4771
      4768      4770      4772      4769      4768      4770      4770      4772      4773
      4770      4772      4774      4770      4772      4775      4771      4770      4772
      4772      4775      4776      4772      4775      4777      4773      4772      4774
      4773      4772      4775      4774      4772      4775      4775      4777      4778
      4775      4777      4779      4776      4775      4777      4777      4779      4780
      4777      4779      4781      4777      4779      4782      4778      4777      4779
      4779      4782      4783      4779      4782      4784      4779      4782      4785
      4780      4779      4781      4780      4779      4782      4781      4779      4782
      4782      4785      4786      4782      4785      4787      4782      4785      4788
      4783      4782      4784      4783      4782      4785      4784      4782      4785
      4785      4788      4789      4785      4788      4790      4785      4788      4791
      4786      4785      4787      4786      4785      4788      4787      4785      4788
      4788      4791      4792      4788      4791      4793      4788      4791      4794
      4789      4788      4790      4789      4788      4791      4790      4788      4791
      4792      4791      4793      4792      4791      4794      4793      4791      4794
      4795      4798      4799      4795      4798      4800      4795      4798      4801
      4796      4795      4797      4796      4795      4798      4797      4795      4798
      4798      4801      4802      4798      4801      4803      4798      4801      4804
      4799      4798      4800      4799      4798      4801      4800      4798      4801
      4801      4804      4805      4801      4804      4806      4801      4804      4807
      4802      4801      4803      4802      4801      4804      4803      4801      4804
      4804      4807      4808      4804      4807      4809      4804      4807      4810
      4805      4804      4806      4805      4804      4807      4806      4804      4807
      4807      4810      4811      4807      4810      4812      4807      4810      4813
      4808      4807      4809      4808      4807      4810      4809      4807      4810
      4810      4813      4814      4810      4813      4815      4810      4813      4816
      4811      4810      4812      4811      4810      4813      4812      4810      4813
      4813      4816      4817      4813      4816      4818      4813      4816      4819
      4814      4813      4815      4814      4813      4816      4815      4813      4816
      4816      4819      4820      4816      4819      4821      4816      4819      4822
      4817      4816      4818      4817      4816      4819      4818      4816      4819
      4819      4822      4823      4819      4822      4824      4819      4822      4825
      4820      4819      4821      4820      4819      4822      4821      4819      4822
      4822      4825      4826      4822      4825      4827      4822      4825      4828
      4823      4822      4824      4823      4822      4825      4824      4822      4825
      4825      4828      4829      4825      4828      4830      4825      4828      4831
      4826      4825      4827      4826      4825      4828      4827      4825      4828
      4828      4831      4832      4828      4831      4833      4828      4831      4834
      4829      4828      4830      4829      4828      4831      4830      4828      4831
      4831      4834      4835      4831      4834      4836      4831      4834      4837
      4832      4831      4833      4832      4831      4834      4833      4831      4834
      4834      4837      4838      4834      4837      4839      4834      4837      4840
      4835      4834      4836      4835      4834      4837      4836      4834      4837
      4837      4840      4841      4837      4840      4842      4837      4840      4843
      4838      4837      4839      4838      4837      4840      4839      4837      4840
      4841      4840      4842      4841      4840      4843      4842      4840      4843
      4844      4848      4849      4844      4848      4850      4844      4848      4851
      4845      4844      4846      4845      4844      4847      4845      4844      4848
      4846      4844      4847      4846      4844      4848      4847      4844      4848
      4848      4851      4852      4848      4851      4853      4848      4851      4857
      4849      4848      4850      4849      4848      4851      4850      4848      4851
      4851      4857      4854      4852      4851      4853      4852      4851      4857
      4853      4851      4857      4854      4858      4859      4855      4854      4856
      4855      4854      4857      4855      4854      4858      4856      4854      4857
      4856      4854      4858      4857      4854      4858      4858      4859      4860
      4858      4859      4861      4858      4859      4862      4859      4862      4863
      4859      4862      4864      4859      4862      4870      4860      4859      4861
      4860      4859      4862      4861      4859      4862      4862      4864      4865
      4862      4870      4871      4862      4870      4872      4862      4870      4873
      4863      4862      4864      4863      4862      4870      4864      4862      4870
      4864      4865      4866      4864      4865      4867      4865      4867      4868
      4865      4867      4869      4865      4867      4879      4866      4865      4867
      4867      4879      4880      4867      4879      4881      4867      4879      4882
      4868      4867      4869      4868      4867      4879      4869      4867      4879
      4870      4873      4874      4871      4870      4872      4871      4870      4873
      4872      4870      4873      4873      4874      4875      4873      4874      4876
      4874      4876      4877      4874      4876      4878      4874      4876      4926
      4875      4874      4876      4876      4926      4927      4876      4926      4928
      4876      4926      4929      4877      4876      4878      4877      4876      4926
      4878      4876      4926      4879      4882      4883      4879      4882      4884
      4879      4882      4885      4880      4879      4881      4880      4879      4882
      4881      4879      4882      4882      4885      4886      4882      4885      4887
      4882      4885      4888      4883      4882      4884      4883      4882      4885
      4884      4882      4885      4885      4888      4889      4885      4888      4890
      4885      4888      4891      4886      4885      4887      4886      4885      4888
      4887      4885      4888      4888      4891      4892      4888      4891      4893
      4888      4891      4894      4889      4888      4890      4889      4888      4891
      4890      4888      4891      4891      4894      4895      4891      4894      4896
      4891      4894      4897      4892      4891      4893      4892      4891      4894
      4893      4891      4894      4894      4897      4898      4894      4897      4899
      4895      4894      4896      4895      4894      4897      4896      4894      4897
      4897      4899      4900      4897      4899      4901      4898      4897      4899
      4899      4901      4902      4899      4901      4903      4899      4901      4904
      4900      4899      4901      4901      4904      4905      4901      4904      4906
      4901      4904      4907      4902      4901      4903      4902      4901      4904
      4903      4901      4904      4904      4907      4908      4904      4907      4909
      4904      4907      4910      4905      4904      4906      4905      4904      4907
      4906      4904      4907      4907      4910      4911      4907      4910      4912
      4907      4910      4913      4908      4907      4909      4908      4907      4910
      4909      4907      4910      4910      4913      4914      4910      4913      4915
      4910      4913      4916      4911      4910      4912      4911      4910      4913
      4912      4910      4913      4913      4916      4917      4913      4916      4918
      4913      4916      4919      4914      4913      4915      4914      4913      4916
      4915      4913      4916      4916      4919      4920      4916      4919      4921
      4916      4919      4922      4917      4916      4918      4917      4916      4919
      4918      4916      4919      4919      4922      4923      4919      4922      4924
      4919      4922      4925      4920      4919      4921      4920      4919      4922
      4921      4919      4922      4923      4922      4924      4923      4922      4925
      4924      4922      4925      4926      4929      4930      4926      4929      4931
      4926      4929      4932      4927      4926      4928      4927      4926      4929
      4928      4926      4929      4929      4932      4933      4929      4932      4934
      4929      4932      4935      4930      4929      4931      4930      4929      4932
      4931      4929      4932      4932      4935      4936      4932      4935      4937
      4932      4935      4938      4933      4932      4934      4933      4932      4935
      4934      4932      4935      4935      4938      4939      4935      4938      4940
      4935      4938      4941      4936      4935      4937      4936      4935      4938
      4937      4935      4938      4938      4941      4942      4938      4941      4943
      4938      4941      4944      4939      4938      4940      4939      4938      4941
      4940      4938      4941      4941      4944      4945      4941      4944      4946
      4941      4944      4947      4942      4941      4943      4942      4941      4944
      4943      4941      4944      4944      4947      4948      4944      4947      4949
      4944      4947      4950      4945      4944      4946      4945      4944      4947
      4946      4944      4947      4947      4950      4951      4947      4950      4952
      4947      4950      4953      4948      4947      4949      4948      4947      4950
      4949      4947      4950      4950      4953      4954      4950      4953      4955
      4950      4953      4956      4951      4950      4952      4951      4950      4953
      4952      4950      4953      4953      4956      4957      4953      4956      4958
      4953      4956      4959      4954      4953      4955      4954      4953      4956
      4955      4953      4956      4956      4959      4960      4956      4959      4961
      4956      4959      4962      4957      4956      4958      4957      4956      4959
      4958      4956      4959      4959      4962      4963      4959      4962      4964
      4959      4962      4965      4960      4959      4961      4960      4959      4962
      4961      4959      4962      4962      4965      4966      4962      4965      4967
      4962      4965      4968      4963      4962      4964      4963      4962      4965
      4964      4962      4965      4965      4968      4969      4965      4968      4970
      4965      4968      4971      4966      4965      4967      4966      4965      4968
      4967      4965      4968      4968      4971      4972      4968      4971      4973
      4968      4971      4974      4969      4968      4970      4969      4968      4971
      4970      4968      4971      4972      4971      4973      4972      4971      4974
      4973      4971      4974      4975      4976      4977      4975      4976      4978
      4975      4976      4991      4975      4979      4980      4975      4979      4981
      4975      4979      4982      4975      4983      4984      4975      4983      4985
      4975      4983      4986      4975      4987      4988      4975      4987      4989
      4975      4987      4990      4976      4975      4979      4976      4975      4983
      4976      4975      4987      4976      4991      4992      4976      4991      4993
      4976      4991      4997      4977      4976      4978      4977      4976      4991
      4978      4976      4991      4979      4975      4983      4979      4975      4987
      4980      4979      4981      4980      4979      4982      4981      4979      4982
      4983      4975      4987      4984      4983      4985      4984      4983      4986
      4985      4983      4986      4988      4987      4989      4988      4987      4990
      4989      4987      4990      4991      4997      4994      4992      4991      4993
      4992      4991      4997      4993      4991      4997      4994      4998      4999
      4995      4994      4996      4995      4994      4997      4995      4994      4998
      4996      4994      4997      4996      4994      4998      4997      4994      4998
      4998      4999      5000      4998      4999      5001      4998      4999      5002
      4999      5002      5003      4999      5002      5004      4999      5002      5010
      5000      4999      5001      5000      4999      5002      5001      4999      5002
      5002      5004      5005      5002      5010      5011      5002      5010      5012
      5002      5010      5013      5003      5002      5004      5003      5002      5010
      5004      5002      5010      5004      5005      5006      5004      5005      5007
      5005      5007      5008      5005      5007      5009      5005      5007      5019
      5006      5005      5007      5007      5019      5020      5007      5019      5021
      5007      5019      5022      5008      5007      5009      5008      5007      5019
      5009      5007      5019      5010      5013      5014      5011      5010      5012
      5011      5010      5013      5012      5010      5013      5013      5014      5015
      5013      5014      5016      5014      5016      5017      5014      5016      5018
      5014      5016      5066      5015      5014      5016      5016      5066      5067
      5016      5066      5068      5016      5066      5069      5017      5016      5018
      5017      5016      5066      5018      5016      5066      5019      5022      5023
      5019      5022      5024      5019      5022      5025      5020      5019      5021
      5020      5019      5022      5021      5019      5022      5022      5025      5026
      5022      5025      5027      5022      5025      5028      5023      5022      5024
      5023      5022      5025      5024      5022      5025      5025      5028      5029
      5025      5028      5030      5025      5028      5031      5026      5025      5027
      5026      5025      5028      5027      5025      5028      5028      5031      5032
      5028      5031      5033      5028      5031      5034      5029      5028      5030
      5029      5028      5031      5030      5028      5031      5031      5034      5035
      5031      5034      5036      5031      5034      5037      5032      5031      5033
      5032      5031      5034      5033      5031      5034      5034      5037      5038
      5034      5037      5039      5035      5034      5036      5035      5034      5037
      5036      5034      5037      5037      5039      5040      5037      5039      5041
      5038      5037      5039      5039      5041      5042      5039      5041      5043
      5039      5041      5044      5040      5039      5041      5041      5044      5045
      5041      5044      5046      5041      5044      5047      5042      5041      5043
      5042      5041      5044      5043      5041      5044      5044      5047      5048
      5044      5047      5049      5044      5047      5050      5045      5044      5046
      5045      5044      5047      5046      5044      5047      5047      5050      5051
      5047      5050      5052      5047      5050      5053      5048      5047      5049
      5048      5047      5050      5049      5047      5050      5050      5053      5054
      5050      5053      5055      5050      5053      5056      5051      5050      5052
      5051      5050      5053      5052      5050      5053      5053      5056      5057
      5053      5056      5058      5053      5056      5059      5054      5053      5055
      5054      5053      5056      5055      5053      5056      5056      5059      5060
      5056      5059      5061      5056      5059      5062      5057      5056      5058
      5057      5056      5059      5058      5056      5059      5059      5062      5063
      5059      5062      5064      5059      5062      5065      5060      5059      5061
      5060      5059      5062      5061      5059      5062      5063      5062      5064
      5063      5062      5065      5064      5062      5065      5066      5069      5070
      5066      5069      5071      5066      5069      5072      5067      5066      5068
      5067      5066      5069      5068      5066      5069      5069      5072      5073
      5069      5072      5074      5069      5072      5075      5070      5069      5071
      5070      5069      5072      5071      5069      5072      5072      5075      5076
      5072      5075      5077      5072      5075      5078      5073      5072      5074
      5073      5072      5075      5074      5072      5075      5075      5078      5079
      5075      5078      5080      5075      5078      5081      5076      5075      5077
      5076      5075      5078      5077      5075      5078      5078      5081      5082
      5078      5081      5083      5078      5081      5084      5079      5078      5080
      5079      5078      5081      5080      5078      5081      5081      5084      5085
      5081      5084      5086      5081      5084      5087      5082      5081      5083
      5082      5081      5084      5083      5081      5084      5084      5087      5088
      5084      5087      5089      5084      5087      5090      5085      5084      5086
      5085      5084      5087      5086      5084      5087      5087      5090      5091
      5087      5090      5092      5087      5090      5093      5088      5087      5089
      5088      5087      5090      5089      5087      5090      5090      5093      5094
      5090      5093      5095      5090      5093      5096      5091      5090      5092
      5091      5090      5093      5092      5090      5093      5093      5096      5097
      5093      5096      5098      5093      5096      5099      5094      5093      5095
      5094      5093      5096      5095      5093      5096      5096      5099      5100
      5096      5099      5101      5096      5099      5102      5097      5096      5098
      5097      5096      5099      5098      5096      5099      5099      5102      5103
      5099      5102      5104      5099      5102      5105      5100      5099      5101
      5100      5099      5102      5101      5099      5102      5102      5105      5106
      5102      5105      5107      5102      5105      5108      5103      5102      5104
      5103      5102      5105      5104      5102      5105      5106      5105      5107
      5106      5105      5108      5107      5105      5108      5109      5110      5111
      5109      5110      5112      5109      5110      5113      5109      5114      5115
      5109      5114      5116      5109      5114      5117      5109      5118      5119
      5109      5118      5120      5109      5118      5121      5109      5122      5123
      5109      5122      5124      5109      5122      5125      5110      5109      5114
      5110      5109      5118      5110      5109      5122      5111      5110      5112
      5111      5110      5113      5112      5110      5113      5114      5109      5118
      5114      5109      5122      5115      5114      5116      5115      5114      5117
      5116      5114      5117      5118      5109      5122      5119      5118      5120
      5119      5118      5121      5120      5118      5121      5122      5125      5126
      5122      5125      5127      5122      5125      5132      5123      5122      5124
      5123      5122      5125      5124      5122      5125      5125      5132      5128
      5126      5125      5127      5126      5125      5132      5127      5125      5132
      5128      5131      5133      5129      5128      5130      5129      5128      5131
      5129      5128      5132      5130      5128      5131      5130      5128      5132
      5131      5128      5132      5131      5133      5134      5131      5133      5135
      5131      5133      5138      5133      5138      5136      5133      5138      5139
      5133      5138      5140      5134      5133      5135      5134      5133      5138
      5135      5133      5138      5136      5138      5139      5136      5138      5140
      5136      5188      5189      5136      5188      5190      5137      5136      5138
      5137      5136      5188      5138      5136      5188      5138      5140      5141
      5138      5140      5142      5138      5140      5144      5139      5138      5140
      5140      5142      5143      5140      5144      5145      5140      5144      5146
      5141      5140      5142      5141      5140      5144      5142      5140      5144
      5144      5146      5147      5144      5146      5148      5145      5144      5146
      5146      5148      5149      5146      5148      5150      5146      5148      5151
      5147      5146      5148      5148      5151      5152      5148      5151      5153
      5148      5151      5154      5149      5148      5150      5149      5148      5151
      5150      5148      5151      5151      5154      5155      5151      5154      5156
      5151      5154      5157      5152      5151      5153      5152      5151      5154
      5153      5151      5154      5154      5157      5158      5154      5157      5159
      5154      5157      5160      5155      5154      5156      5155      5154      5157
      5156      5154      5157      5157      5160      5161      5157      5160      5162
      5157      5160      5163      5158      5157      5159      5158      5157      5160
      5159      5157      5160      5160      5163      5164      5160      5163      5165
      5160      5163      5166      5161      5160      5162      5161      5160      5163
      5162      5160      5163      5163      5166      5167      5163      5166      5168
      5163      5166      5169      5164      5163      5165      5164      5163      5166
      5165      5163      5166      5166      5169      5170      5166      5169      5171
      5166      5169      5172      5167      5166      5168      5167      5166      5169
      5168      5166      5169      5169      5172      5173      5169      5172      5174
      5169      5172      5175      5170      5169      5171      5170      5169      5172
      5171      5169      5172      5172      5175      5176      5172      5175      5177
      5172      5175      5178      5173      5172      5174      5173      5172      5175
      5174      5172      5175      5175      5178      5179      5175      5178      5180
      5175      5178      5181      5176      5175      5177      5176      5175      5178
      5177      5175      5178      5178      5181      5182      5178      5181      5183
      5178      5181      5184      5179      5178      5180      5179      5178      5181
      5180      5178      5181      5181      5184      5185      5181      5184      5186
      5181      5184      5187      5182      5181      5183      5182      5181      5184
      5183      5181      5184      5185      5184      5186      5185      5184      5187
      5186      5184      5187      5188      5190      5191      5188      5190      5192
      5188      5190      5193      5189      5188      5190      5190      5193      5194
      5190      5193      5195      5190      5193      5196      5191      5190      5192
      5191      5190      5193      5192      5190      5193      5193      5196      5197
      5193      5196      5198      5193      5196      5199      5194      5193      5195
      5194      5193      5196      5195      5193      5196      5196      5199      5200
      5196      5199      5201      5196      5199      5202      5197      5196      5198
      5197      5196      5199      5198      5196      5199      5199      5202      5203
      5199      5202      5204      5199      5202      5205      5200      5199      5201
      5200      5199      5202      5201      5199      5202      5202      5205      5206
      5202      5205      5207      5202      5205      5208      5203      5202      5204
      5203      5202      5205      5204      5202      5205      5205      5208      5209
      5205      5208      5210      5205      5208      5211      5206      5205      5207
      5206      5205      5208      5207      5205      5208      5208      5211      5212
      5208      5211      5213      5209      5208      5210      5209      5208      5211
      5210      5208      5211      5211      5213      5214      5211      5213      5215
      5212      5211      5213      5213      5215      5216      5213      5215      5217
      5213      5215      5218      5214      5213      5215      5215      5218      5219
      5215      5218      5220      5215      5218      5221      5216      5215      5217
      5216      5215      5218      5217      5215      5218      5218      5221      5222
      5218      5221      5223      5218      5221      5224      5219      5218      5220
      5219      5218      5221      5220      5218      5221      5221      5224      5225
      5221      5224      5226      5221      5224      5227      5222      5221      5223
      5222      5221      5224      5223      5221      5224      5224      5227      5228
      5224      5227      5229      5224      5227      5230      5225      5224      5226
      5225      5224      5227      5226      5224      5227      5227      5230      5231
      5227      5230      5232      5227      5230      5233      5228      5227      5229
      5228      5227      5230      5229      5227      5230      5230      5233      5234
      5230      5233      5235      5230      5233      5236      5231      5230      5232
      5231      5230      5233      5232      5230      5233      5233      5236      5237
      5233      5236      5238      5233      5236      5239      5234      5233      5235
      5234      5233      5236      5235      5233      5236      5237      5236      5238
      5237      5236      5239      5238      5236      5239      5240      5241      5242
      5240      5241      5243      5240      5241      5244      5240      5245      5246
      5240      5245      5247      5240      5245      5248      5240      5249      5250
      5240      5249      5251      5240      5249      5252      5240      5253      5254
      5240      5253      5255      5240      5253      5256      5241      5240      5245
      5241      5240      5249      5241      5240      5253      5242      5241      5243
      5242      5241      5244      5243      5241      5244      5245      5240      5249
      5245      5240      5253      5246      5245      5247      5246      5245      5248
      5247      5245      5248      5249      5240      5253      5250      5249      5251
      5250      5249      5252      5251      5249      5252      5253      5256      5257
      5253      5256      5258      5253      5256      5263      5254      5253      5255
      5254      5253      5256      5255      5253      5256      5256      5263      5259
      5257      5256      5258      5257      5256      5263      5258      5256      5263
      5259      5262      5264      5260      5259      5261      5260      5259      5262
      5260      5259      5263      5261      5259      5262      5261      5259      5263
      5262      5259      5263      5262      5264      5265      5262      5264      5266
      5262      5264      5269      5264      5269      5267      5264      5269      5270
      5264      5269      5271      5265      5264      5266      5265      5264      5269
      5266      5264      5269      5267      5269      5270      5267      5269      5271
      5267      5319      5320      5267      5319      5321      5268      5267      5269
      5268      5267      5319      5269      5267      5319      5269      5271      5272
      5269      5271      5273      5269      5271      5275      5270      5269      5271
      5271      5273      5274      5271      5275      5276      5271      5275      5277
      5272      5271      5273      5272      5271      5275      5273      5271      5275
      5275      5277      5278      5275      5277      5279      5276      5275      5277
      5277      5279      5280      5277      5279      5281      5277      5279      5282
      5278      5277      5279      5279      5282      5283      5279      5282      5284
      5279      5282      5285      5280      5279      5281      5280      5279      5282
      5281      5279      5282      5282      5285      5286      5282      5285      5287
      5282      5285      5288      5283      5282      5284      5283      5282      5285
      5284      5282      5285      5285      5288      5289      5285      5288      5290
      5285      5288      5291      5286      5285      5287      5286      5285      5288
      5287      5285      5288      5288      5291      5292      5288      5291      5293
      5288      5291      5294      5289      5288      5290      5289      5288      5291
      5290      5288      5291      5291      5294      5295      5291      5294      5296
      5291      5294      5297      5292      5291      5293      5292      5291      5294
      5293      5291      5294      5294      5297      5298      5294      5297      5299
      5294      5297      5300      5295      5294      5296      5295      5294      5297
      5296      5294      5297      5297      5300      5301      5297      5300      5302
      5297      5300      5303      5298      5297      5299      5298      5297      5300
      5299      5297      5300      5300      5303      5304      5300      5303      5305
      5300      5303      5306      5301      5300      5302      5301      5300      5303
      5302      5300      5303      5303      5306      5307      5303      5306      5308
      5303      5306      5309      5304      5303      5305      5304      5303      5306
      5305      5303      5306      5306      5309      5310      5306      5309      5311
      5306      5309      5312      5307      5306      5308      5307      5306      5309
      5308      5306      5309      5309      5312      5313      5309      5312      5314
      5309      5312      5315      5310      5309      5311      5310      5309      5312
      5311      5309      5312      5312      5315      5316      5312      5315      5317
      5312      5315      5318      5313      5312      5314      5313      5312      5315
      5314      5312      5315      5316      5315      5317      5316      5315      5318
      5317      5315      5318      5319      5321      5322      5319      5321      5323
      5319      5321      5324      5320      5319      5321      5321      5324      5325
      5321      5324      5326      5321      5324      5327      5322      5321      5323
      5322      5321      5324      5323      5321      5324      5324      5327      5328
      5324      5327      5329      5324      5327      5330      5325      5324      5326
      5325      5324      5327      5326      5324      5327      5327      5330      5331
      5327      5330      5332      5327      5330      5333      5328      5327      5329
      5328      5327      5330      5329      5327      5330      5330      5333      5334
      5330      5333      5335      5330      5333      5336      5331      5330      5332
      5331      5330      5333      5332      5330      5333      5333      5336      5337
      5333      5336      5338      5333      5336      5339      5334      5333      5335
      5334      5333      5336      5335      5333      5336      5336      5339      5340
      5336      5339      5341      5336      5339      5342      5337      5336      5338
      5337      5336      5339      5338      5336      5339      5339      5342      5343
      5339      5342      5344      5340      5339      5341      5340      5339      5342
      5341      5339      5342      5342      5344      5345      5342      5344      5346
      5343      5342      5344      5344      5346      5347      5344      5346      5348
      5344      5346      5349      5345      5344      5346      5346      5349      5350
      5346      5349      5351      5346      5349      5352      5347      5346      5348
      5347      5346      5349      5348      5346      5349      5349      5352      5353
      5349      5352      5354      5349      5352      5355      5350      5349      5351
      5350      5349      5352      5351      5349      5352      5352      5355      5356
      5352      5355      5357      5352      5355      5358      5353      5352      5354
      5353      5352      5355      5354      5352      5355      5355      5358      5359
      5355      5358      5360      5355      5358      5361      5356      5355      5357
      5356      5355      5358      5357      5355      5358      5358      5361      5362
      5358      5361      5363      5358      5361      5364      5359      5358      5360
      5359      5358      5361      5360      5358      5361      5361      5364      5365
      5361      5364      5366      5361      5364      5367      5362      5361      5363
      5362      5361      5364      5363      5361      5364      5364      5367      5368
      5364      5367      5369      5364      5367      5370      5365      5364      5366
      5365      5364      5367      5366      5364      5367      5368      5367      5369
      5368      5367      5370      5369      5367      5370      5371      5373      5374
      5371      5375      5376      5371      5375      5377      5371      5375      5378
      5371      5417      5414      5371      5417      5418      5371      5417      5419
      5372      5371      5373      5372      5371      5375      5372      5371      5417
      5373      5371      5375      5373      5371      5417      5375      5371      5417
      5375      5378      5379      5375      5378      5409      5376      5375      5377
      5376      5375      5378      5377      5375      5378      5378      5379      5380
      5378      5379      5381      5378      5409      5407      5378      5409      5410
      5378      5409      5414      5379      5378      5409      5379      5381      5382
      5379      5381      5383      5379      5381      5384      5380      5379      5381
      5381      5384      5385      5381      5384      5386      5381      5384      5407
      5382      5381      5383      5382      5381      5384      5383      5381      5384
      5384      5386      5387      5384      5386      5388      5384      5386      5396
      5384      5407      5404      5384      5407      5408      5384      5407      5409
      5385      5384      5386      5385      5384      5407      5386      5384      5407
      5386      5388      5389      5386      5388      5390      5386      5388      5391
      5386      5396      5394      5386      5396      5397      5386      5396      5401
      5387      5386      5388      5387      5386      5396      5388      5386      5396
      5388      5391      5392      5388      5391      5393      5388      5391      5394
      5389      5388      5390      5389      5388      5391      5390      5388      5391
      5391      5394      5395      5391      5394      5396      5391      5394      5420
      5392      5391      5393      5392      5391      5394      5393      5391      5394
      5394      5396      5397      5394      5396      5401      5394      5420      5421
      5394      5420      5422      5394      5420      5426      5395      5394      5396
      5395      5394      5420      5396      5394      5420      5396      5397      5398
      5396      5397      5399      5396      5397      5400      5396      5401      5402
      5396      5401      5403      5396      5401      5404      5397      5396      5401
      5398      5397      5399      5398      5397      5400      5399      5397      5400
      5401      5404      5405      5401      5404      5406      5401      5404      5407
      5402      5401      5403      5402      5401      5404      5403      5401      5404
      5404      5407      5408      5404      5407      5409      5405      5404      5406
      5405      5404      5407      5406      5404      5407      5407      5409      5410
      5407      5409      5414      5408      5407      5409      5409      5410      5411
      5409      5410      5412      5409      5410      5413      5409      5414      5415
      5409      5414      5416      5409      5414      5417      5410      5409      5414
      5411      5410      5412      5411      5410      5413      5412      5410      5413
      5414      5417      5418      5414      5417      5419      5415      5414      5416
      5415      5414      5417      5416      5414      5417      5418      5417      5419
      5420      5422      5423      5420      5422      5424      5420      5422      5425
      5420      5426      5427      5420      5426      5428      5420      5426      5429
      5421      5420      5422      5421      5420      5426      5422      5420      5426
      5423      5422      5424      5423      5422      5425      5424      5422      5425
      5426      5429      5430      5426      5429      5431      5426      5429      5432
      5427      5426      5428      5427      5426      5429      5428      5426      5429
      5429      5432      5433      5429      5432      5434      5429      5432      5435
      5430      5429      5431      5430      5429      5432      5431      5429      5432
      5432      5435      5436      5432      5435      5437      5432      5435      5441
      5433      5432      5434      5433      5432      5435      5434      5432      5435
      5435      5437      5438      5435      5437      5439      5435      5437      5440
      5435      5441      5442      5435      5441      5443      5435      5441      5444
      5436      5435      5437      5436      5435      5441      5437      5435      5441
      5438      5437      5439      5438      5437      5440      5439      5437      5440
      5442      5441      5443      5442      5441      5444      5443      5441      5444
      5445      5447      5448      5445      5449      5450      5445      5449      5451
      5445      5449      5452      5445      5491      5488      5445      5491      5492
      5445      5491      5493      5446      5445      5447      5446      5445      5449
      5446      5445      5491      5447      5445      5449      5447      5445      5491
      5449      5445      5491      5449      5452      5453      5449      5452      5483
      5450      5449      5451      5450      5449      5452      5451      5449      5452
      5452      5453      5454      5452      5453      5455      5452      5483      5481
      5452      5483      5484      5452      5483      5488      5453      5452      5483
      5453      5455      5456      5453      5455      5457      5453      5455      5458
      5454      5453      5455      5455      5458      5459      5455      5458      5460
      5455      5458      5481      5456      5455      5457      5456      5455      5458
      5457      5455      5458      5458      5460      5461      5458      5460      5462
      5458      5460      5470      5458      5481      5478      5458      5481      5482
      5458      5481      5483      5459      5458      5460      5459      5458      5481
      5460      5458      5481      5460      5462      5463      5460      5462      5464
      5460      5462      5465      5460      5470      5468      5460      5470      5471
      5460      5470      5475      5461      5460      5462      5461      5460      5470
      5462      5460      5470      5462      5465      5466      5462      5465      5467
      5462      5465      5468      5463      5462      5464      5463      5462      5465
      5464      5462      5465      5465      5468      5469      5465      5468      5470
      5465      5468      5494      5466      5465      5467      5466      5465      5468
      5467      5465      5468      5468      5470      5471      5468      5470      5475
      5468      5494      5495      5468      5494      5496      5468      5494      5500
      5469      5468      5470      5469      5468      5494      5470      5468      5494
      5470      5471      5472      5470      5471      5473      5470      5471      5474
      5470      5475      5476      5470      5475      5477      5470      5475      5478
      5471      5470      5475      5472      5471      5473      5472      5471      5474
      5473      5471      5474      5475      5478      5479      5475      5478      5480
      5475      5478      5481      5476      5475      5477      5476      5475      5478
      5477      5475      5478      5478      5481      5482      5478      5481      5483
      5479      5478      5480      5479      5478      5481      5480      5478      5481
      5481      5483      5484      5481      5483      5488      5482      5481      5483
      5483      5484      5485      5483      5484      5486      5483      5484      5487
      5483      5488      5489      5483      5488      5490      5483      5488      5491
      5484      5483      5488      5485      5484      5486      5485      5484      5487
      5486      5484      5487      5488      5491      5492      5488      5491      5493
      5489      5488      5490      5489      5488      5491      5490      5488      5491
      5492      5491      5493      5494      5496      5497      5494      5496      5498
      5494      5496      5499      5494      5500      5501      5494      5500      5502
      5494      5500      5503      5495      5494      5496      5495      5494      5500
      5496      5494      5500      5497      5496      5498      5497      5496      5499
      5498      5496      5499      5500      5503      5504      5500      5503      5505
      5500      5503      5506      5501      5500      5502      5501      5500      5503
      5502      5500      5503      5503      5506      5507      5503      5506      5508
      5503      5506      5509      5504      5503      5505      5504      5503      5506
      5505      5503      5506      5506      5509      5510      5506      5509      5511
      5506      5509      5515      5507      5506      5508      5507      5506      5509
      5508      5506      5509      5509      5511      5512      5509      5511      5513
      5509      5511      5514      5509      5515      5516      5509      5515      5517
      5509      5515      5518      5510      5509      5511      5510      5509      5515
      5511      5509      5515      5512      5511      5513      5512      5511      5514
      5513      5511      5514      5516      5515      5517      5516      5515      5518
      5517      5515      5518      5519      5521      5522      5519      5523      5524
      5519      5523      5525      5519      5523      5526      5519      5565      5562
      5519      5565      5566      5519      5565      5567      5520      5519      5521
      5520      5519      5523      5520      5519      5565      5521      5519      5523
      5521      5519      5565      5523      5519      5565      5523      5526      5527
      5523      5526      5557      5524      5523      5525      5524      5523      5526
      5525      5523      5526      5526      5527      5528      5526      5527      5529
      5526      5557      5555      5526      5557      5558      5526      5557      5562
      5527      5526      5557      5527      5529      5530      5527      5529      5531
      5527      5529      5532      5528      5527      5529      5529      5532      5533
      5529      5532      5534      5529      5532      5555      5530      5529      5531
      5530      5529      5532      5531      5529      5532      5532      5534      5535
      5532      5534      5536      5532      5534      5544      5532      5555      5552
      5532      5555      5556      5532      5555      5557      5533      5532      5534
      5533      5532      5555      5534      5532      5555      5534      5536      5537
      5534      5536      5538      5534      5536      5539      5534      5544      5542
      5534      5544      5545      5534      5544      5549      5535      5534      5536
      5535      5534      5544      5536      5534      5544      5536      5539      5540
      5536      5539      5541      5536      5539      5542      5537      5536      5538
      5537      5536      5539      5538      5536      5539      5539      5542      5543
      5539      5542      5544      5539      5542      5568      5540      5539      5541
      5540      5539      5542      5541      5539      5542      5542      5544      5545
      5542      5544      5549      5542      5568      5569      5542      5568      5570
      5542      5568      5574      5543      5542      5544      5543      5542      5568
      5544      5542      5568      5544      5545      5546      5544      5545      5547
      5544      5545      5548      5544      5549      5550      5544      5549      5551
      5544      5549      5552      5545      5544      5549      5546      5545      5547
      5546      5545      5548      5547      5545      5548      5549      5552      5553
      5549      5552      5554      5549      5552      5555      5550      5549      5551
      5550      5549      5552      5551      5549      5552      5552      5555      5556
      5552      5555      5557      5553      5552      5554      5553      5552      5555
      5554      5552      5555      5555      5557      5558      5555      5557      5562
      5556      5555      5557      5557      5558      5559      5557      5558      5560
      5557      5558      5561      5557      5562      5563      5557      5562      5564
      5557      5562      5565      5558      5557      5562      5559      5558      5560
      5559      5558      5561      5560      5558      5561      5562      5565      5566
      5562      5565      5567      5563      5562      5564      5563      5562      5565
      5564      5562      5565      5566      5565      5567      5568      5570      5571
      5568      5570      5572      5568      5570      5573      5568      5574      5575
      5568      5574      5576      5568      5574      5577      5569      5568      5570
      5569      5568      5574      5570      5568      5574      5571      5570      5572
      5571      5570      5573      5572      5570      5573      5574      5577      5578
      5574      5577      5579      5574      5577      5580      5575      5574      5576
      5575      5574      5577      5576      5574      5577      5577      5580      5581
      5577      5580      5582      5577      5580      5583      5578      5577      5579
      5578      5577      5580      5579      5577      5580      5580      5583      5584
      5580      5583      5585      5580      5583      5589      5581      5580      5582
      5581      5580      5583      5582      5580      5583      5583      5585      5586
      5583      5585      5587      5583      5585      5588      5583      5589      5590
      5583      5589      5591      5583      5589      5592      5584      5583      5585
      5584      5583      5589      5585      5583      5589      5586      5585      5587
      5586      5585      5588      5587      5585      5588      5590      5589      5591
      5590      5589      5592      5591      5589      5592      5593      5595      5596
      5593      5597      5598      5593      5597      5599      5593      5597      5600
      5593      5639      5636      5593      5639      5640      5593      5639      5641
      5594      5593      5595      5594      5593      5597      5594      5593      5639
      5595      5593      5597      5595      5593      5639      5597      5593      5639
      5597      5600      5601      5597      5600      5631      5598      5597      5599
      5598      5597      5600      5599      5597      5600      5600      5601      5602
      5600      5601      5603      5600      5631      5629      5600      5631      5632
      5600      5631      5636      5601      5600      5631      5601      5603      5604
      5601      5603      5605      5601      5603      5606      5602      5601      5603
      5603      5606      5607      5603      5606      5608      5603      5606      5629
      5604      5603      5605      5604      5603      5606      5605      5603      5606
      5606      5608      5609      5606      5608      5610      5606      5608      5618
      5606      5629      5626      5606      5629      5630      5606      5629      5631
      5607      5606      5608      5607      5606      5629      5608      5606      5629
      5608      5610      5611      5608      5610      5612      5608      5610      5613
      5608      5618      5616      5608      5618      5619      5608      5618      5623
      5609      5608      5610      5609      5608      5618      5610      5608      5618
      5610      5613      5614      5610      5613      5615      5610      5613      5616
      5611      5610      5612      5611      5610      5613      5612      5610      5613
      5613      5616      5617      5613      5616      5618      5613      5616      5642
      5614      5613      5615      5614      5613      5616      5615      5613      5616
      5616      5618      5619      5616      5618      5623      5616      5642      5643
      5616      5642      5644      5616      5642      5648      5617      5616      5618
      5617      5616      5642      5618      5616      5642      5618      5619      5620
      5618      5619      5621      5618      5619      5622      5618      5623      5624
      5618      5623      5625      5618      5623      5626      5619      5618      5623
      5620      5619      5621      5620      5619      5622      5621      5619      5622
      5623      5626      5627      5623      5626      5628      5623      5626      5629
      5624      5623      5625      5624      5623      5626      5625      5623      5626
      5626      5629      5630      5626      5629      5631      5627      5626      5628
      5627      5626      5629      5628      5626      5629      5629      5631      5632
      5629      5631      5636      5630      5629      5631      5631      5632      5633
      5631      5632      5634      5631      5632      5635      5631      5636      5637
      5631      5636      5638      5631      5636      5639      5632      5631      5636
      5633      5632      5634      5633      5632      5635      5634      5632      5635
      5636      5639      5640      5636      5639      5641      5637      5636      5638
      5637      5636      5639      5638      5636      5639      5640      5639      5641
      5642      5644      5645      5642      5644      5646      5642      5644      5647
      5642      5648      5649      5642      5648      5650      5642      5648      5651
      5643      5642      5644      5643      5642      5648      5644      5642      5648
      5645      5644      5646      5645      5644      5647      5646      5644      5647
      5648      5651      5652      5648      5651      5653      5648      5651      5654
      5649      5648      5650      5649      5648      5651      5650      5648      5651
      5651      5654      5655      5651      5654      5656      5651      5654      5657
      5652      5651      5653      5652      5651      5654      5653      5651      5654
      5654      5657      5658      5654      5657      5659      5654      5657      5663
      5655      5654      5656      5655      5654      5657      5656      5654      5657
      5657      5659      5660      5657      5659      5661      5657      5659      5662
      5657      5663      5664      5657      5663      5665      5657      5663      5666
      5658      5657      5659      5658      5657      5663      5659      5657      5663
      5660      5659      5661      5660      5659      5662      5661      5659      5662
      5664      5663      5665      5664      5663      5666      5665      5663      5666
      5667      5671      5672      5667      5671      5673      5667      5671      5674
      5668      5667      5669      5668      5667      5670      5668      5667      5671
      5669      5667      5670      5669      5667      5671      5670      5667      5671
      5671      5674      5675      5671      5674      5676      5671      5674      5680
      5672      5671      5673      5672      5671      5674      5673      5671      5674
      5674      5680      5677      5675      5674      5676      5675      5674      5680
      5676      5674      5680      5677      5681      5682      5678      5677      5679
      5678      5677      5680      5678      5677      5681      5679      5677      5680
      5679      5677      5681      5680      5677      5681      5681      5682      5683
      5681      5682      5684      5681      5682      5685      5682      5685      5686
      5682      5685      5687      5682      5685      5693      5683      5682      5684
      5683      5682      5685      5684      5682      5685      5685      5687      5688
      5685      5693      5694      5685      5693      5695      5685      5693      5696
      5686      5685      5687      5686      5685      5693      5687      5685      5693
      5687      5688      5689      5687      5688      5690      5688      5690      5691
      5688      5690      5692      5688      5690      5702      5689      5688      5690
      5690      5702      5703      5690      5702      5704      5690      5702      5705
      5691      5690      5692      5691      5690      5702      5692      5690      5702
      5693      5696      5697      5694      5693      5695      5694      5693      5696
      5695      5693      5696      5696      5697      5698      5696      5697      5699
      5697      5699      5700      5697      5699      5701      5697      5699      5749
      5698      5697      5699      5699      5749      5750      5699      5749      5751
      5699      5749      5752      5700      5699      5701      5700      5699      5749
      5701      5699      5749      5702      5705      5706      5702      5705      5707
      5702      5705      5708      5703      5702      5704      5703      5702      5705
      5704      5702      5705      5705      5708      5709      5705      5708      5710
      5706      5705      5707      5706      5705      5708      5707      5705      5708
      5708      5710      5711      5708      5710      5712      5709      5708      5710
      5710      5712      5713      5710      5712      5714      5710      5712      5715
      5711      5710      5712      5712      5715      5716      5712      5715      5717
      5713      5712      5714      5713      5712      5715      5714      5712      5715
      5715      5717      5718      5715      5717      5719      5716      5715      5717
      5717      5719      5720      5717      5719      5721      5717      5719      5722
      5718      5717      5719      5719      5722      5723      5719      5722      5724
      5720      5719      5721      5720      5719      5722      5721      5719      5722
      5722      5724      5725      5722      5724      5726      5723      5722      5724
      5724      5726      5727      5724      5726      5728      5724      5726      5729
      5725      5724      5726      5726      5729      5730      5726      5729      5731
      5727      5726      5728      5727      5726      5729      5728      5726      5729
      5729      5731      5732      5729      5731      5733      5730      5729      5731
      5731      5733      5734      5731      5733      5735      5731      5733      5736
      5732      5731      5733      5733      5736      5737      5733      5736      5738
      5733      5736      5739      5734      5733      5735      5734      5733      5736
      5735      5733      5736      5736      5739      5740      5736      5739      5741
      5736      5739      5742      5737      5736      5738      5737      5736      5739
      5738      5736      5739      5739      5742      5743      5739      5742      5744
      5739      5742      5745      5740      5739      5741      5740      5739      5742
      5741      5739      5742      5742      5745      5746      5742      5745      5747
      5742      5745      5748      5743      5742      5744      5743      5742      5745
      5744      5742      5745      5746      5745      5747      5746      5745      5748
      5747      5745      5748      5749      5752      5753      5749      5752      5754
      5749      5752      5755      5750      5749      5751      5750      5749      5752
      5751      5749      5752      5752      5755      5756      5752      5755      5757
      5752      5755      5758      5753      5752      5754      5753      5752      5755
      5754      5752      5755      5755      5758      5759      5755      5758      5760
      5755      5758      5761      5756      5755      5757      5756      5755      5758
      5757      5755      5758      5758      5761      5762      5758      5761      5763
      5758      5761      5764      5759      5758      5760      5759      5758      5761
      5760      5758      5761      5761      5764      5765      5761      5764      5766
      5761      5764      5767      5762      5761      5763      5762      5761      5764
      5763      5761      5764      5764      5767      5768      5764      5767      5769
      5764      5767      5770      5765      5764      5766      5765      5764      5767
      5766      5764      5767      5767      5770      5771      5767      5770      5772
      5767      5770      5773      5768      5767      5769      5768      5767      5770
      5769      5767      5770      5770      5773      5774      5770      5773      5775
      5770      5773      5776      5771      5770      5772      5771      5770      5773
      5772      5770      5773      5773      5776      5777      5773      5776      5778
      5773      5776      5779      5774      5773      5775      5774      5773      5776
      5775      5773      5776      5776      5779      5780      5776      5779      5781
      5776      5779      5782      5777      5776      5778      5777      5776      5779
      5778      5776      5779      5779      5782      5783      5779      5782      5784
      5779      5782      5785      5780      5779      5781      5780      5779      5782
      5781      5779      5782      5782      5785      5786      5782      5785      5787
      5782      5785      5788      5783      5782      5784      5783      5782      5785
      5784      5782      5785      5785      5788      5789      5785      5788      5790
      5785      5788      5791      5786      5785      5787      5786      5785      5788
      5787      5785      5788      5788      5791      5792      5788      5791      5793
      5788      5791      5794      5789      5788      5790      5789      5788      5791
      5790      5788      5791      5791      5794      5795      5791      5794      5796
      5791      5794      5797      5792      5791      5793      5792      5791      5794
      5793      5791      5794      5795      5794      5796      5795      5794      5797
      5796      5794      5797      5798      5800      5801      5798      5802      5803
      5798      5802      5804      5798      5802      5805      5798      5844      5841
      5798      5844      5845      5798      5844      5846      5799      5798      5800
      5799      5798      5802      5799      5798      5844      5800      5798      5802
      5800      5798      5844      5802      5798      5844      5802      5805      5806
      5802      5805      5836      5803      5802      5804      5803      5802      5805
      5804      5802      5805      5805      5806      5807      5805      5806      5808
      5805      5836      5834      5805      5836      5837      5805      5836      5841
      5806      5805      5836      5806      5808      5809      5806      5808      5810
      5806      5808      5811      5807      5806      5808      5808      5811      5812
      5808      5811      5813      5808      5811      5834      5809      5808      5810
      5809      5808      5811      5810      5808      5811      5811      5813      5814
      5811      5813      5815      5811      5813      5823      5811      5834      5831
      5811      5834      5835      5811      5834      5836      5812      5811      5813
      5812      5811      5834      5813      5811      5834      5813      5815      5816
      5813      5815      5817      5813      5815      5818      5813      5823      5821
      5813      5823      5824      5813      5823      5828      5814      5813      5815
      5814      5813      5823      5815      5813      5823      5815      5818      5819
      5815      5818      5820      5815      5818      5821      5816      5815      5817
      5816      5815      5818      5817      5815      5818      5818      5821      5822
      5818      5821      5823      5818      5821      5847      5819      5818      5820
      5819      5818      5821      5820      5818      5821      5821      5823      5824
      5821      5823      5828      5821      5847      5848      5821      5847      5849
      5821      5847      5853      5822      5821      5823      5822      5821      5847
      5823      5821      5847      5823      5824      5825      5823      5824      5826
      5823      5824      5827      5823      5828      5829      5823      5828      5830
      5823      5828      5831      5824      5823      5828      5825      5824      5826
      5825      5824      5827      5826      5824      5827      5828      5831      5832
      5828      5831      5833      5828      5831      5834      5829      5828      5830
      5829      5828      5831      5830      5828      5831      5831      5834      5835
      5831      5834      5836      5832      5831      5833      5832      5831      5834
      5833      5831      5834      5834      5836      5837      5834      5836      5841
      5835      5834      5836      5836      5837      5838      5836      5837      5839
      5836      5837      5840      5836      5841      5842      5836      5841      5843
      5836      5841      5844      5837      5836      5841      5838      5837      5839
      5838      5837      5840      5839      5837      5840      5841      5844      5845
      5841      5844      5846      5842      5841      5843      5842      5841      5844
      5843      5841      5844      5845      5844      5846      5847      5849      5850
      5847      5849      5851      5847      5849      5852      5847      5853      5854
      5847      5853      5855      5847      5853      5856      5848      5847      5849
      5848      5847      5853      5849      5847      5853      5850      5849      5851
      5850      5849      5852      5851      5849      5852      5853      5856      5857
      5853      5856      5858      5853      5856      5859      5854      5853      5855
      5854      5853      5856      5855      5853      5856      5856      5859      5860
      5856      5859      5861      5856      5859      5862      5857      5856      5858
      5857      5856      5859      5858      5856      5859      5859      5862      5863
      5859      5862      5864      5859      5862      5868      5860      5859      5861
      5860      5859      5862      5861      5859      5862      5862      5864      5865
      5862      5864      5866      5862      5864      5867      5862      5868      5869
      5862      5868      5870      5862      5868      5871      5863      5862      5864
      5863      5862      5868      5864      5862      5868      5865      5864      5866
      5865      5864      5867      5866      5864      5867      5869      5868      5870
      5869      5868      5871      5870      5868      5871      5872      5876      5877
      5872      5876      5878      5872      5876      5881      5873      5872      5874
      5873      5872      5875      5873      5872      5876      5874      5872      5875
      5874      5872      5876      5875      5872      5876      5876      5878      5879
      5876      5878      5880      5876      5881      5882      5876      5881      5883
      5876      5881      5887      5877      5876      5878      5877      5876      5881
      5878      5876      5881      5879      5878      5880      5881      5887      5884
      5882      5881      5883      5882      5881      5887      5883      5881      5887
      5884      5888      5889      5885      5884      5886      5885      5884      5887
      5885      5884      5888      5886      5884      5887      5886      5884      5888
      5887      5884      5888      5888      5889      5890      5888      5889      5891
      5888      5889      5892      5889      5892      5893      5889      5892      5894
      5889      5892      5900      5890      5889      5891      5890      5889      5892
      5891      5889      5892      5892      5894      5895      5892      5900      5901
      5892      5900      5902      5892      5900      5903      5893      5892      5894
      5893      5892      5900      5894      5892      5900      5894      5895      5896
      5894      5895      5897      5895      5897      5898      5895      5897      5899
      5895      5897      5909      5896      5895      5897      5897      5909      5910
      5897      5909      5911      5897      5909      5912      5898      5897      5899
      5898      5897      5909      5899      5897      5909      5900      5903      5904
      5901      5900      5902      5901      5900      5903      5902      5900      5903
      5903      5904      5905      5903      5904      5906      5904      5906      5907
      5904      5906      5908      5904      5906      5956      5905      5904      5906
      5906      5956      5957      5906      5956      5958      5906      5956      5959
      5907      5906      5908      5907      5906      5956      5908      5906      5956
      5909      5912      5913      5909      5912      5914      5909      5912      5915
      5910      5909      5911      5910      5909      5912      5911      5909      5912
      5912      5915      5916      5912      5915      5917      5913      5912      5914
      5913      5912      5915      5914      5912      5915      5915      5917      5918
      5915      5917      5919      5916      5915      5917      5917      5919      5920
      5917      5919      5921      5917      5919      5922      5918      5917      5919
      5919      5922      5923      5919      5922      5924      5920      5919      5921
      5920      5919      5922      5921      5919      5922      5922      5924      5925
      5922      5924      5926      5923      5922      5924      5924      5926      5927
      5924      5926      5928      5924      5926      5929      5925      5924      5926
      5926      5929      5930      5926      5929      5931      5927      5926      5928
      5927      5926      5929      5928      5926      5929      5929      5931      5932
      5929      5931      5933      5930      5929      5931      5931      5933      5934
      5931      5933      5935      5931      5933      5936      5932      5931      5933
      5933      5936      5937      5933      5936      5938      5934      5933      5935
      5934      5933      5936      5935      5933      5936      5936      5938      5939
      5936      5938      5940      5937      5936      5938      5938      5940      5941
      5938      5940      5942      5938      5940      5943      5939      5938      5940
      5940      5943      5944      5940      5943      5945      5940      5943      5946
      5941      5940      5942      5941      5940      5943      5942      5940      5943
      5943      5946      5947      5943      5946      5948      5943      5946      5949
      5944      5943      5945      5944      5943      5946      5945      5943      5946
      5946      5949      5950      5946      5949      5951      5946      5949      5952
      5947      5946      5948      5947      5946      5949      5948      5946      5949
      5949      5952      5953      5949      5952      5954      5949      5952      5955
      5950      5949      5951      5950      5949      5952      5951      5949      5952
      5953      5952      5954      5953      5952      5955      5954      5952      5955
      5956      5959      5960      5956      5959      5961      5956      5959      5962
      5957      5956      5958      5957      5956      5959      5958      5956      5959
      5959      5962      5963      5959      5962      5964      5959      5962      5965
      5960      5959      5961      5960      5959      5962      5961      5959      5962
      5962      5965      5966      5962      5965      5967      5962      5965      5968
      5963      5962      5964      5963      5962      5965      5964      5962      5965
      5965      5968      5969      5965      5968      5970      5965      5968      5971
      5966      5965      5967      5966      5965      5968      5967      5965      5968
      5968      5971      5972      5968      5971      5973      5968      5971      5974
      5969      5968      5970      5969      5968      5971      5970      5968      5971
      5971      5974      5975      5971      5974      5976      5971      5974      5977
      5972      5971      5973      5972      5971      5974      5973      5971      5974
      5974      5977      5978      5974      5977      5979      5974      5977      5980
      5975      5974      5976      5975      5974      5977      5976      5974      5977
      5977      5980      5981      5977      5980      5982      5977      5980      5983
      5978      5977      5979      5978      5977      5980      5979      5977      5980
      5980      5983      5984      5980      5983      5985      5980      5983      5986
      5981      5980      5982      5981      5980      5983      5982      5980      5983
      5983      5986      5987      5983      5986      5988      5983      5986      5989
      5984      5983      5985      5984      5983      5986      5985      5983      5986
      5986      5989      5990      5986      5989      5991      5986      5989      5992
      5987      5986      5988      5987      5986      5989      5988      5986      5989
      5989      5992      5993      5989      5992      5994      5989      5992      5995
      5990      5989      5991      5990      5989      5992      5991      5989      5992
      5992      5995      5996      5992      5995      5997      5992      5995      5998
      5993      5992      5994      5993      5992      5995      5994      5992      5995
      5995      5998      5999      5995      5998      6000      5995      5998      6001
      5996      5995      5997      5996      5995      5998      5997      5995      5998
      5998      6001      6002      5998      6001      6003      5998      6001      6004
      5999      5998      6000      5999      5998      6001      6000      5998      6001
      6002      6001      6003      6002      6001      6004      6003      6001      6004
      6005      6007      6008      6005      6009      6010      6005      6009      6011
      6005      6009      6012      6005      6051      6048      6005      6051      6052
      6005      6051      6053      6006      6005      6007      6006      6005      6009
      6006      6005      6051      6007      6005      6009      6007      6005      6051
      6009      6005      6051      6009      6012      6013      6009      6012      6043
      6010      6009      6011      6010      6009      6012      6011      6009      6012
      6012      6013      6014      6012      6013      6015      6012      6043      6041
      6012      6043      6044      6012      6043      6048      6013      6012      6043
      6013      6015      6016      6013      6015      6017      6013      6015      6018
      6014      6013      6015      6015      6018      6019      6015      6018      6020
      6015      6018      6041      6016      6015      6017      6016      6015      6018
      6017      6015      6018      6018      6020      6021      6018      6020      6022
      6018      6020      6030      6018      6041      6038      6018      6041      6042
      6018      6041      6043      6019      6018      6020      6019      6018      6041
      6020      6018      6041      6020      6022      6023      6020      6022      6024
      6020      6022      6025      6020      6030      6028      6020      6030      6031
      6020      6030      6035      6021      6020      6022      6021      6020      6030
      6022      6020      6030      6022      6025      6026      6022      6025      6027
      6022      6025      6028      6023      6022      6024      6023      6022      6025
      6024      6022      6025      6025      6028      6029      6025      6028      6030
      6025      6028      6054      6026      6025      6027      6026      6025      6028
      6027      6025      6028      6028      6030      6031      6028      6030      6035
      6028      6054      6055      6028      6054      6056      6028      6054      6060
      6029      6028      6030      6029      6028      6054      6030      6028      6054
      6030      6031      6032      6030      6031      6033      6030      6031      6034
      6030      6035      6036      6030      6035      6037      6030      6035      6038
      6031      6030      6035      6032      6031      6033      6032      6031      6034
      6033      6031      6034      6035      6038      6039      6035      6038      6040
      6035      6038      6041      6036      6035      6037      6036      6035      6038
      6037      6035      6038      6038      6041      6042      6038      6041      6043
      6039      6038      6040      6039      6038      6041      6040      6038      6041
      6041      6043      6044      6041      6043      6048      6042      6041      6043
      6043      6044      6045      6043      6044      6046      6043      6044      6047
      6043      6048      6049      6043      6048      6050      6043      6048      6051
      6044      6043      6048      6045      6044      6046      6045      6044      6047
      6046      6044      6047      6048      6051      6052      6048      6051      6053
      6049      6048      6050      6049      6048      6051      6050      6048      6051
      6052      6051      6053      6054      6056      6057      6054      6056      6058
      6054      6056      6059      6054      6060      6061      6054      6060      6062
      6054      6060      6063      6055      6054      6056      6055      6054      6060
      6056      6054      6060      6057      6056      6058      6057      6056      6059
      6058      6056      6059      6060      6063      6064      6060      6063      6065
      6060      6063      6066      6061      6060      6062      6061      6060      6063
      6062      6060      6063      6063      6066      6067      6063      6066      6068
      6063      6066      6069      6064      6063      6065      6064      6063      6066
      6065      6063      6066      6066      6069      6070      6066      6069      6071
      6066      6069      6075      6067      6066      6068      6067      6066      6069
      6068      6066      6069      6069      6071      6072      6069      6071      6073
      6069      6071      6074      6069      6075      6076      6069      6075      6077
      6069      6075      6078      6070      6069      6071      6070      6069      6075
      6071      6069      6075      6072      6071      6073      6072      6071      6074
      6073      6071      6074      6076      6075      6077      6076      6075      6078
      6077      6075      6078      6079      6081      6082      6079      6083      6084
      6079      6083      6085      6079      6083      6086      6079      6125      6122
      6079      6125      6126      6079      6125      6127      6080      6079      6081
      6080      6079      6083      6080      6079      6125      6081      6079      6083
      6081      6079      6125      6083      6079      6125      6083      6086      6087
      6083      6086      6117      6084      6083      6085      6084      6083      6086
      6085      6083      6086      6086      6087      6088      6086      6087      6089
      6086      6117      6115      6086      6117      6118      6086      6117      6122
      6087      6086      6117      6087      6089      6090      6087      6089      6091
      6087      6089      6092      6088      6087      6089      6089      6092      6093
      6089      6092      6094      6089      6092      6115      6090      6089      6091
      6090      6089      6092      6091      6089      6092      6092      6094      6095
      6092      6094      6096      6092      6094      6104      6092      6115      6112
      6092      6115      6116      6092      6115      6117      6093      6092      6094
      6093      6092      6115      6094      6092      6115      6094      6096      6097
      6094      6096      6098      6094      6096      6099      6094      6104      6102
      6094      6104      6105      6094      6104      6109      6095      6094      6096
      6095      6094      6104      6096      6094      6104      6096      6099      6100
      6096      6099      6101      6096      6099      6102      6097      6096      6098
      6097      6096      6099      6098      6096      6099      6099      6102      6103
      6099      6102      6104      6099      6102      6128      6100      6099      6101
      6100      6099      6102      6101      6099      6102      6102      6104      6105
      6102      6104      6109      6102      6128      6129      6102      6128      6130
      6102      6128      6134      6103      6102      6104      6103      6102      6128
      6104      6102      6128      6104      6105      6106      6104      6105      6107
      6104      6105      6108      6104      6109      6110      6104      6109      6111
      6104      6109      6112      6105      6104      6109      6106      6105      6107
      6106      6105      6108      6107      6105      6108      6109      6112      6113
      6109      6112      6114      6109      6112      6115      6110      6109      6111
      6110      6109      6112      6111      6109      6112      6112      6115      6116
      6112      6115      6117      6113      6112      6114      6113      6112      6115
      6114      6112      6115      6115      6117      6118      6115      6117      6122
      6116      6115      6117      6117      6118      6119      6117      6118      6120
      6117      6118      6121      6117      6122      6123      6117      6122      6124
      6117      6122      6125      6118      6117      6122      6119      6118      6120
      6119      6118      6121      6120      6118      6121      6122      6125      6126
      6122      6125      6127      6123      6122      6124      6123      6122      6125
      6124      6122      6125      6126      6125      6127      6128      6130      6131
      6128      6130      6132      6128      6130      6133      6128      6134      6135
      6128      6134      6136      6128      6134      6137      6129      6128      6130
      6129      6128      6134      6130      6128      6134      6131      6130      6132
      6131      6130      6133      6132      6130      6133      6134      6137      6138
      6134      6137      6139      6134      6137      6140      6135      6134      6136
      6135      6134      6137      6136      6134      6137      6137      6140      6141
      6137      6140      6142      6137      6140      6143      6138      6137      6139
      6138      6137      6140      6139      6137      6140      6140      6143      6144
      6140      6143      6145      6140      6143      6149      6141      6140      6142
      6141      6140      6143      6142      6140      6143      6143      6145      6146
      6143      6145      6147      6143      6145      6148      6143      6149      6150
      6143      6149      6151      6143      6149      6152      6144      6143      6145
      6144      6143      6149      6145      6143      6149      6146      6145      6147
      6146      6145      6148      6147      6145      6148      6150      6149      6151
      6150      6149      6152      6151      6149      6152      6153      6157      6158
      6153      6157      6159      6153      6157      6160      6154      6153      6155
      6154      6153      6156      6154      6153      6157      6155      6153      6156
      6155      6153      6157      6156      6153      6157      6157      6160      6161
      6157      6160      6162      6157      6160      6166      6158      6157      6159
      6158      6157      6160      6159      6157      6160      6160      6166      6163
      6161      6160      6162      6161      6160      6166      6162      6160      6166
      6163      6167      6168      6164      6163      6165      6164      6163      6166
      6164      6163      6167      6165      6163      6166      6165      6163      6167
      6166      6163      6167      6167      6168      6169      6167      6168      6170
      6167      6168      6171      6168      6171      6172      6168      6171      6173
      6168      6171      6179      6169      6168      6170      6169      6168      6171
      6170      6168      6171      6171      6173      6174      6171      6179      6180
      6171      6179      6181      6171      6179      6182      6172      6171      6173
      6172      6171      6179      6173      6171      6179      6173      6174      6175
      6173      6174      6176      6174      6176      6177      6174      6176      6178
      6174      6176      6188      6175      6174      6176      6176      6188      6189
      6176      6188      6190      6176      6188      6191      6177      6176      6178
      6177      6176      6188      6178      6176      6188      6179      6182      6183
      6180      6179      6181      6180      6179      6182      6181      6179      6182
      6182      6183      6184      6182      6183      6185      6183      6185      6186
      6183      6185      6187      6183      6185      6235      6184      6183      6185
      6185      6235      6236      6185      6235      6237      6185      6235      6238
      6186      6185      6187      6186      6185      6235      6187      6185      6235
      6188      6191      6192      6188      6191      6193      6188      6191      6194
      6189      6188      6190      6189      6188      6191      6190      6188      6191
      6191      6194      6195      6191      6194      6196      6192      6191      6193
      6192      6191      6194      6193      6191      6194      6194      6196      6197
      6194      6196      6198      6195      6194      6196      6196      6198      6199
      6196      6198      6200      6196      6198      6201      6197      6196      6198
      6198      6201      6202      6198      6201      6203      6199      6198      6200
      6199      6198      6201      6200      6198      6201      6201      6203      6204
      6201      6203      6205      6202      6201      6203      6203      6205      6206
      6203      6205      6207      6203      6205      6208      6204      6203      6205
      6205      6208      6209      6205      6208      6210      6206      6205      6207
      6206      6205      6208      6207      6205      6208      6208      6210      6211
      6208      6210      6212      6209      6208      6210      6210      6212      6213
      6210      6212      6214      6210      6212      6215      6211      6210      6212
      6212      6215      6216      6212      6215      6217      6213      6212      6214
      6213      6212      6215      6214      6212      6215      6215      6217      6218
      6215      6217      6219      6216      6215      6217      6217      6219      6220
      6217      6219      6221      6217      6219      6222      6218      6217      6219
      6219      6222      6223      6219      6222      6224      6219      6222      6225
      6220      6219      6221      6220      6219      6222      6221      6219      6222
      6222      6225      6226      6222      6225      6227      6222      6225      6228
      6223      6222      6224      6223      6222      6225      6224      6222      6225
      6225      6228      6229      6225      6228      6230      6225      6228      6231
      6226      6225      6227      6226      6225      6228      6227      6225      6228
      6228      6231      6232      6228      6231      6233      6228      6231      6234
      6229      6228      6230      6229      6228      6231      6230      6228      6231
      6232      6231      6233      6232      6231      6234      6233      6231      6234
      6235      6238      6239      6235      6238      6240      6235      6238      6241
      6236      6235      6237      6236      6235      6238      6237      6235      6238
      6238      6241      6242      6238      6241      6243      6238      6241      6244
      6239      6238      6240      6239      6238      6241      6240      6238      6241
      6241      6244      6245      6241      6244      6246      6241      6244      6247
      6242      6241      6243      6242      6241      6244      6243      6241      6244
      6244      6247      6248      6244      6247      6249      6244      6247      6250
      6245      6244      6246      6245      6244      6247      6246      6244      6247
      6247      6250      6251      6247      6250      6252      6247      6250      6253
      6248      6247      6249      6248      6247      6250      6249      6247      6250
      6250      6253      6254      6250      6253      6255      6250      6253      6256
      6251      6250      6252      6251      6250      6253      6252      6250      6253
      6253      6256      6257      6253      6256      6258      6253      6256      6259
      6254      6253      6255      6254      6253      6256      6255      6253      6256
      6256      6259      6260      6256      6259      6261      6256      6259      6262
      6257      6256      6258      6257      6256      6259      6258      6256      6259
      6259      6262      6263      6259      6262      6264      6259      6262      6265
      6260      6259      6261      6260      6259      6262      6261      6259      6262
      6262      6265      6266      6262      6265      6267      6262      6265      6268
      6263      6262      6264      6263      6262      6265      6264      6262      6265
      6265      6268      6269      6265      6268      6270      6265      6268      6271
      6266      6265      6267      6266      6265      6268      6267      6265      6268
      6268      6271      6272      6268      6271      6273      6268      6271      6274
      6269      6268      6270      6269      6268      6271      6270      6268      6271
      6271      6274      6275      6271      6274      6276      6271      6274      6277
      6272      6271      6273      6272      6271      6274      6273      6271      6274
      6274      6277      6278      6274      6277      6279      6274      6277      6280
      6275      6274      6276      6275      6274      6277      6276      6274      6277
      6277      6280      6281      6277      6280      6282      6277      6280      6283
      6278      6277      6279      6278      6277      6280      6279      6277      6280
      6281      6280      6282      6281      6280      6283      6282      6280      6283
      6284      6288      6289      6284      6288      6290      6284      6288      6291
      6285      6284      6286      6285      6284      6287      6285      6284      6288
      6286      6284      6287      6286      6284      6288      6287      6284      6288
      6288      6291      6292      6288      6291      6293      6288      6291      6297
      6289      6288      6290      6289      6288      6291      6290      6288      6291
      6291      6297      6294      6292      6291      6293      6292      6291      6297
      6293      6291      6297      6294      6298      6299      6295      6294      6296
      6295      6294      6297      6295      6294      6298      6296      6294      6297
      6296      6294      6298      6297      6294      6298      6298      6299      6300
      6298      6299      6301      6298      6299      6302      6299      6302      6303
      6299      6302      6304      6299      6302      6310      6300      6299      6301
      6300      6299      6302      6301      6299      6302      6302      6304      6305
      6302      6310      6311      6302      6310      6312      6302      6310      6313
      6303      6302      6304      6303      6302      6310      6304      6302      6310
      6304      6305      6306      6304      6305      6307      6305      6307      6308
      6305      6307      6309      6305      6307      6319      6306      6305      6307
      6307      6319      6320      6307      6319      6321      6307      6319      6322
      6308      6307      6309      6308      6307      6319      6309      6307      6319
      6310      6313      6314      6311      6310      6312      6311      6310      6313
      6312      6310      6313      6313      6314      6315      6313      6314      6316
      6314      6316      6317      6314      6316      6318      6314      6316      6366
      6315      6314      6316      6316      6366      6367      6316      6366      6368
      6316      6366      6369      6317      6316      6318      6317      6316      6366
      6318      6316      6366      6319      6322      6323      6319      6322      6324
      6319      6322      6325      6320      6319      6321      6320      6319      6322
      6321      6319      6322      6322      6325      6326      6322      6325      6327
      6323      6322      6324      6323      6322      6325      6324      6322      6325
      6325      6327      6328      6325      6327      6329      6326      6325      6327
      6327      6329      6330      6327      6329      6331      6327      6329      6332
      6328      6327      6329      6329      6332      6333      6329      6332      6334
      6330      6329      6331      6330      6329      6332      6331      6329      6332
      6332      6334      6335      6332      6334      6336      6333      6332      6334
      6334      6336      6337      6334      6336      6338      6334      6336      6339
      6335      6334      6336      6336      6339      6340      6336      6339      6341
      6337      6336      6338      6337      6336      6339      6338      6336      6339
      6339      6341      6342      6339      6341      6343      6340      6339      6341
      6341      6343      6344      6341      6343      6345      6341      6343      6346
      6342      6341      6343      6343      6346      6347      6343      6346      6348
      6344      6343      6345      6344      6343      6346      6345      6343      6346
      6346      6348      6349      6346      6348      6350      6347      6346      6348
      6348      6350      6351      6348      6350      6352      6348      6350      6353
      6349      6348      6350      6350      6353      6354      6350      6353      6355
      6350      6353      6356      6351      6350      6352      6351      6350      6353
      6352      6350      6353      6353      6356      6357      6353      6356      6358
      6353      6356      6359      6354      6353      6355      6354      6353      6356
      6355      6353      6356      6356      6359      6360      6356      6359      6361
      6356      6359      6362      6357      6356      6358      6357      6356      6359
      6358      6356      6359      6359      6362      6363      6359      6362      6364
      6359      6362      6365      6360      6359      6361      6360      6359      6362
      6361      6359      6362      6363      6362      6364      6363      6362      6365
      6364      6362      6365      6366      6369      6370      6366      6369      6371
      6366      6369      6372      6367      6366      6368      6367      6366      6369
      6368      6366      6369      6369      6372      6373      6369      6372      6374
      6369      6372      6375      6370      6369      6371      6370      6369      6372
      6371      6369      6372      6372      6375      6376      6372      6375      6377
      6372      6375      6378      6373      6372      6374      6373      6372      6375
      6374      6372      6375      6375      6378      6379      6375      6378      6380
      6375      6378      6381      6376      6375      6377      6376      6375      6378
      6377      6375      6378      6378      6381      6382      6378      6381      6383
      6378      6381      6384      6379      6378      6380      6379      6378      6381
      6380      6378      6381      6381      6384      6385      6381      6384      6386
      6381      6384      6387      6382      6381      6383      6382      6381      6384
      6383      6381      6384      6384      6387      6388      6384      6387      6389
      6384      6387      6390      6385      6384      6386      6385      6384      6387
      6386      6384      6387      6387      6390      6391      6387      6390      6392
      6387      6390      6393      6388      6387      6389      6388      6387      6390
      6389      6387      6390      6390      6393      6394      6390      6393      6395
      6390      6393      6396      6391      6390      6392      6391      6390      6393
      6392      6390      6393      6393      6396      6397      6393      6396      6398
      6393      6396      6399      6394      6393      6395      6394      6393      6396
      6395      6393      6396      6396      6399      6400      6396      6399      6401
      6396      6399      6402      6397      6396      6398      6397      6396      6399
      6398      6396      6399      6399      6402      6403      6399      6402      6404
      6399      6402      6405      6400      6399      6401      6400      6399      6402
      6401      6399      6402      6402      6405      6406      6402      6405      6407
      6402      6405      6408      6403      6402      6404      6403      6402      6405
      6404      6402      6405      6405      6408      6409      6405      6408      6410
      6405      6408      6411      6406      6405      6407      6406      6405      6408
      6407      6405      6408      6408      6411      6412      6408      6411      6413
      6408      6411      6414      6409      6408      6410      6409      6408      6411
      6410      6408      6411      6412      6411      6413      6412      6411      6414
      6413      6411      6414      6415      6416      6417      6415      6416      6418
      6415      6416      6419      6415      6420      6421      6415      6420      6422
      6415      6420      6423      6415      6424      6425      6415      6424      6426
      6415      6424      6427      6415      6428      6429      6415      6428      6430
      6415      6428      6431      6416      6415      6420      6416      6415      6424
      6416      6415      6428      6417      6416      6418      6417      6416      6419
      6418      6416      6419      6420      6415      6424      6420      6415      6428
      6421      6420      6422      6421      6420      6423      6422      6420      6423
      6424      6415      6428      6425      6424      6426      6425      6424      6427
      6426      6424      6427      6428      6431      6432      6428      6431      6433
      6428      6431      6438      6429      6428      6430      6429      6428      6431
      6430      6428      6431      6431      6438      6434      6432      6431      6433
      6432      6431      6438      6433      6431      6438      6434      6437      6439
      6435      6434      6436      6435      6434      6437      6435      6434      6438
      6436      6434      6437      6436      6434      6438      6437      6434      6438
      6437      6439      6440      6437      6439      6441      6437      6439      6444
      6439      6444      6442      6439      6444      6445      6439      6444      6446
      6440      6439      6441      6440      6439      6444      6441      6439      6444
      6442      6444      6445      6442      6444      6446      6442      6494      6495
      6442      6494      6496      6443      6442      6444      6443      6442      6494
      6444      6442      6494      6444      6446      6447      6444      6446      6448
      6444      6446      6450      6445      6444      6446      6446      6448      6449
      6446      6450      6451      6446      6450      6452      6447      6446      6448
      6447      6446      6450      6448      6446      6450      6450      6452      6453
      6450      6452      6454      6451      6450      6452      6452      6454      6455
      6452      6454      6456      6452      6454      6457      6453      6452      6454
      6454      6457      6458      6454      6457      6459      6454      6457      6460
      6455      6454      6456      6455      6454      6457      6456      6454      6457
      6457      6460      6461      6457      6460      6462      6457      6460      6463
      6458      6457      6459      6458      6457      6460      6459      6457      6460
      6460      6463      6464      6460      6463      6465      6460      6463      6466
      6461      6460      6462      6461      6460      6463      6462      6460      6463
      6463      6466      6467      6463      6466      6468      6463      6466      6469
      6464      6463      6465      6464      6463      6466      6465      6463      6466
      6466      6469      6470      6466      6469      6471      6466      6469      6472
      6467      6466      6468      6467      6466      6469      6468      6466      6469
      6469      6472      6473      6469      6472      6474      6469      6472      6475
      6470      6469      6471      6470      6469      6472      6471      6469      6472
      6472      6475      6476      6472      6475      6477      6472      6475      6478
      6473      6472      6474      6473      6472      6475      6474      6472      6475
      6475      6478      6479      6475      6478      6480      6475      6478      6481
      6476      6475      6477      6476      6475      6478      6477      6475      6478
      6478      6481      6482      6478      6481      6483      6478      6481      6484
      6479      6478      6480      6479      6478      6481      6480      6478      6481
      6481      6484      6485      6481      6484      6486      6481      6484      6487
      6482      6481      6483      6482      6481      6484      6483      6481      6484
      6484      6487      6488      6484      6487      6489      6484      6487      6490
      6485      6484      6486      6485      6484      6487      6486      6484      6487
      6487      6490      6491      6487      6490      6492      6487      6490      6493
      6488      6487      6489      6488      6487      6490      6489      6487      6490
      6491      6490      6492      6491      6490      6493      6492      6490      6493
      6494      6496      6497      6494      6496      6498      6494      6496      6499
      6495      6494      6496      6496      6499      6500      6496      6499      6501
      6496      6499      6502      6497      6496      6498      6497      6496      6499
      6498      6496      6499      6499      6502      6503      6499      6502      6504
      6499      6502      6505      6500      6499      6501      6500      6499      6502
      6501      6499      6502      6502      6505      6506      6502      6505      6507
      6502      6505      6508      6503      6502      6504      6503      6502      6505
      6504      6502      6505      6505      6508      6509      6505      6508      6510
      6505      6508      6511      6506      6505      6507      6506      6505      6508
      6507      6505      6508      6508      6511      6512      6508      6511      6513
      6508      6511      6514      6509      6508      6510      6509      6508      6511
      6510      6508      6511      6511      6514      6515      6511      6514      6516
      6511      6514      6517      6512      6511      6513      6512      6511      6514
      6513      6511      6514      6514      6517      6518      6514      6517      6519
      6515      6514      6516      6515      6514      6517      6516      6514      6517
      6517      6519      6520      6517      6519      6521      6518      6517      6519
      6519      6521      6522      6519      6521      6523      6519      6521      6524
      6520      6519      6521      6521      6524      6525      6521      6524      6526
      6521      6524      6527      6522      6521      6523      6522      6521      6524
      6523      6521      6524      6524      6527      6528      6524      6527      6529
      6524      6527      6530      6525      6524      6526      6525      6524      6527
      6526      6524      6527      6527      6530      6531      6527      6530      6532
      6527      6530      6533      6528      6527      6529      6528      6527      6530
      6529      6527      6530      6530      6533      6534      6530      6533      6535
      6530      6533      6536      6531      6530      6532      6531      6530      6533
      6532      6530      6533      6533      6536      6537      6533      6536      6538
      6533      6536      6539      6534      6533      6535      6534      6533      6536
      6535      6533      6536      6536      6539      6540      6536      6539      6541
      6536      6539      6542      6537      6536      6538      6537      6536      6539
      6538      6536      6539      6539      6542      6543      6539      6542      6544
      6539      6542      6545      6540      6539      6541      6540      6539      6542
      6541      6539      6542      6543      6542      6544      6543      6542      6545
      6544      6542      6545      6546      6547      6548      6546      6547      6549
      6546      6547      6550      6546      6551      6552      6546      6551      6553
      6546      6551      6554      6546      6555      6556      6546      6555      6557
      6546      6555      6558      6546      6559      6560      6546      6559      6561
      6546      6559      6562      6547      6546      6551      6547      6546      6555
      6547      6546      6559      6548      6547      6549      6548      6547      6550
      6549      6547      6550      6551      6546      6555      6551      6546      6559
      6552      6551      6553      6552      6551      6554      6553      6551      6554
      6555      6546      6559      6556      6555      6557      6556      6555      6558
      6557      6555      6558      6559      6562      6563      6559      6562      6564
      6559      6562      6568      6560      6559      6561      6560      6559      6562
      6561      6559      6562      6562      6568      6565      6563      6562      6564
      6563      6562      6568      6564      6562      6568      6565      6569      6570
      6566      6565      6567      6566      6565      6568      6566      6565      6569
      6567      6565      6568      6567      6565      6569      6568      6565      6569
      6569      6570      6571      6569      6570      6572      6569      6570      6573
      6570      6573      6574      6570      6573      6575      6570      6573      6581
      6571      6570      6572      6571      6570      6573      6572      6570      6573
      6573      6575      6576      6573      6581      6582      6573      6581      6583
      6573      6581      6584      6574      6573      6575      6574      6573      6581
      6575      6573      6581      6575      6576      6577      6575      6576      6578
      6576      6578      6579      6576      6578      6580      6576      6578      6590
      6577      6576      6578      6578      6590      6591      6578      6590      6592
      6578      6590      6593      6579      6578      6580      6579      6578      6590
      6580      6578      6590      6581      6584      6585      6582      6581      6583
      6582      6581      6584      6583      6581      6584      6584      6585      6586
      6584      6585      6587      6585      6587      6588      6585      6587      6589
      6585      6587      6635      6586      6585      6587      6587      6635      6636
      6587      6635      6637      6587      6635      6638      6588      6587      6589
      6588      6587      6635      6589      6587      6635      6590      6593      6594
      6590      6593      6595      6590      6593      6596      6591      6590      6592
      6591      6590      6593      6592      6590      6593      6593      6596      6597
      6593      6596      6598      6593      6596      6599      6594      6593      6595
      6594      6593      6596      6595      6593      6596      6596      6599      6600
      6596      6599      6601      6596      6599      6602      6597      6596      6598
      6597      6596      6599      6598      6596      6599      6599      6602      6603
      6599      6602      6604      6599      6602      6605      6600      6599      6601
      6600      6599      6602      6601      6599      6602      6602      6605      6606
      6602      6605      6607      6602      6605      6608      6603      6602      6604
      6603      6602      6605      6604      6602      6605      6605      6608      6609
      6605      6608      6610      6606      6605      6607      6606      6605      6608
      6607      6605      6608      6608      6610      6611      6608      6610      6612
      6609      6608      6610      6610      6612      6613      6610      6612      6614
      6610      6612      6615      6611      6610      6612      6612      6615      6616
      6612      6615      6617      6613      6612      6614      6613      6612      6615
      6614      6612      6615      6615      6617      6618      6615      6617      6619
      6616      6615      6617      6617      6619      6620      6617      6619      6621
      6617      6619      6622      6618      6617      6619      6619      6622      6623
      6619      6622      6624      6619      6622      6625      6620      6619      6621
      6620      6619      6622      6621      6619      6622      6622      6625      6626
      6622      6625      6627      6622      6625      6628      6623      6622      6624
      6623      6622      6625      6624      6622      6625      6625      6628      6629
      6625      6628      6630      6625      6628      6631      6626      6625      6627
      6626      6625      6628      6627      6625      6628      6628      6631      6632
      6628      6631      6633      6628      6631      6634      6629      6628      6630
      6629      6628      6631      6630      6628      6631      6632      6631      6633
      6632      6631      6634      6633      6631      6634      6635      6638      6639
      6635      6638      6640      6635      6638      6641      6636      6635      6637
      6636      6635      6638      6637      6635      6638      6638      6641      6642
      6638      6641      6643      6638      6641      6644      6639      6638      6640
      6639      6638      6641      6640      6638      6641      6641      6644      6645
      6641      6644      6646      6641      6644      6647      6642      6641      6643
      6642      6641      6644      6643      6641      6644      6644      6647      6648
      6644      6647      6649      6644      6647      6650      6645      6644      6646
      6645      6644      6647      6646      6644      6647      6647      6650      6651
      6647      6650      6652      6647      6650      6653      6648      6647      6649
      6648      6647      6650      6649      6647      6650      6650      6653      6654
      6650      6653      6655      6650      6653      6656      6651      6650      6652
      6651      6650      6653      6652      6650      6653      6653      6656      6657
      6653      6656      6658      6653      6656      6659      6654      6653      6655
      6654      6653      6656      6655      6653      6656      6656      6659      6660
      6656      6659      6661      6656      6659      6662      6657      6656      6658
      6657      6656      6659      6658      6656      6659      6659      6662      6663
      6659      6662      6664      6659      6662      6665      6660      6659      6661
      6660      6659      6662      6661      6659      6662      6662      6665      6666
      6662      6665      6667      6662      6665      6668      6663      6662      6664
      6663      6662      6665      6664      6662      6665      6665      6668      6669
      6665      6668      6670      6665      6668      6671      6666      6665      6667
      6666      6665      6668      6667      6665      6668      6668      6671      6672
      6668      6671      6673      6668      6671      6674      6669      6668      6670
      6669      6668      6671      6670      6668      6671      6671      6674      6675
      6671      6674      6676      6671      6674      6677      6672      6671      6673
      6672      6671      6674      6673      6671      6674      6674      6677      6678
      6674      6677      6679      6674      6677      6680      6675      6674      6676
      6675      6674      6677      6676      6674      6677      6677      6680      6681
      6677      6680      6682      6677      6680      6683      6678      6677      6679
      6678      6677      6680      6679      6677      6680      6681      6680      6682
      6681      6680      6683      6682      6680      6683      6684      6685      6686
      6684      6685      6687      6684      6685      6700      6684      6688      6689
      6684      6688      6690      6684      6688      6691      6684      6692      6693
      6684      6692      6694      6684      6692      6695      6684      6696      6697
      6684      6696      6698      6684      6696      6699      6685      6684      6688
      6685      6684      6692      6685      6684      6696      6685      6700      6701
      6685      6700      6702      6685      6700      6706      6686      6685      6687
      6686      6685      6700      6687      6685      6700      6688      6684      6692
      6688      6684      6696      6689      6688      6690      6689      6688      6691
      6690      6688      6691      6692      6684      6696      6693      6692      6694
      6693      6692      6695      6694      6692      6695      6697      6696      6698
      6697      6696      6699      6698      6696      6699      6700      6706      6703
      6701      6700      6702      6701      6700      6706      6702      6700      6706
      6703      6707      6708      6704      6703      6705      6704      6703      6706
      6704      6703      6707      6705      6703      6706      6705      6703      6707
      6706      6703      6707      6707      6708      6709      6707      6708      6710
      6707      6708      6711      6708      6711      6712      6708      6711      6713
      6708      6711      6719      6709      6708      6710      6709      6708      6711
      6710      6708      6711      6711      6713      6714      6711      6719      6720
      6711      6719      6721      6711      6719      6722      6712      6711      6713
      6712      6711      6719      6713      6711      6719      6713      6714      6715
      6713      6714      6716      6714      6716      6717      6714      6716      6718
      6714      6716      6728      6715      6714      6716      6716      6728      6729
      6716      6728      6730      6716      6728      6731      6717      6716      6718
      6717      6716      6728      6718      6716      6728      6719      6722      6723
      6720      6719      6721      6720      6719      6722      6721      6719      6722
      6722      6723      6724      6722      6723      6725      6723      6725      6726
      6723      6725      6727      6723      6725      6775      6724      6723      6725
      6725      6775      6776      6725      6775      6777      6725      6775      6778
      6726      6725      6727      6726      6725      6775      6727      6725      6775
      6728      6731      6732      6728      6731      6733      6728      6731      6734
      6729      6728      6730      6729      6728      6731      6730      6728      6731
      6731      6734      6735      6731      6734      6736      6732      6731      6733
      6732      6731      6734      6733      6731      6734      6734      6736      6737
      6734      6736      6738      6735      6734      6736      6736      6738      6739
      6736      6738      6740      6736      6738      6741      6737      6736      6738
      6738      6741      6742      6738      6741      6743      6739      6738      6740
      6739      6738      6741      6740      6738      6741      6741      6743      6744
      6741      6743      6745      6742      6741      6743      6743      6745      6746
      6743      6745      6747      6743      6745      6748      6744      6743      6745
      6745      6748      6749      6745      6748      6750      6746      6745      6747
      6746      6745      6748      6747      6745      6748      6748      6750      6751
      6748      6750      6752      6749      6748      6750      6750      6752      6753
      6750      6752      6754      6750      6752      6755      6751      6750      6752
      6752      6755      6756      6752      6755      6757      6753      6752      6754
      6753      6752      6755      6754      6752      6755      6755      6757      6758
      6755      6757      6759      6756      6755      6757      6757      6759      6760
      6757      6759      6761      6757      6759      6762      6758      6757      6759
      6759      6762      6763      6759      6762      6764      6759      6762      6765
      6760      6759      6761      6760      6759      6762      6761      6759      6762
      6762      6765      6766      6762      6765      6767      6762      6765      6768
      6763      6762      6764      6763      6762      6765      6764      6762      6765
      6765      6768      6769      6765      6768      6770      6765      6768      6771
      6766      6765      6767      6766      6765      6768      6767      6765      6768
      6768      6771      6772      6768      6771      6773      6768      6771      6774
      6769      6768      6770      6769      6768      6771      6770      6768      6771
      6772      6771      6773      6772      6771      6774      6773      6771      6774
      6775      6778      6779      6775      6778      6780      6775      6778      6781
      6776      6775      6777      6776      6775      6778      6777      6775      6778
      6778      6781      6782      6778      6781      6783      6778      6781      6784
      6779      6778      6780      6779      6778      6781      6780      6778      6781
      6781      6784      6785      6781      6784      6786      6781      6784      6787
      6782      6781      6783      6782      6781      6784      6783      6781      6784
      6784      6787      6788      6784      6787      6789      6784      6787      6790
      6785      6784      6786      6785      6784      6787      6786      6784      6787
      6787      6790      6791      6787      6790      6792      6787      6790      6793
      6788      6787      6789      6788      6787      6790      6789      6787      6790
      6790      6793      6794      6790      6793      6795      6790      6793      6796
      6791      6790      6792      6791      6790      6793      6792      6790      6793
      6793      6796      6797      6793      6796      6798      6793      6796      6799
      6794      6793      6795      6794      6793      6796      6795      6793      6796
      6796      6799      6800      6796      6799      6801      6796      6799      6802
      6797      6796      6798      6797      6796      6799      6798      6796      6799
      6799      6802      6803      6799      6802      6804      6799      6802      6805
      6800      6799      6801      6800      6799      6802      6801      6799      6802
      6802      6805      6806      6802      6805      6807      6802      6805      6808
      6803      6802      6804      6803      6802      6805      6804      6802      6805
      6805      6808      6809      6805      6808      6810      6805      6808      6811
      6806      6805      6807      6806      6805      6808      6807      6805      6808
      6808      6811      6812      6808      6811      6813      6808      6811      6814
      6809      6808      6810      6809      6808      6811      6810      6808      6811
      6811      6814      6815      6811      6814      6816      6811      6814      6817
      6812      6811      6813      6812      6811      6814      6813      6811      6814
      6814      6817      6818      6814      6817      6819      6814      6817      6820
      6815      6814      6816      6815      6814      6817      6816      6814      6817
      6817      6820      6821      6817      6820      6822      6817      6820      6823
      6818      6817      6819      6818      6817      6820      6819      6817      6820
      6821      6820      6822      6821      6820      6823      6822      6820      6823
      6824      6828      6829      6824      6828      6830      6824      6828      6831
      6825      6824      6826      6825      6824      6827      6825      6824      6828
      6826      6824      6827      6826      6824      6828      6827      6824      6828
      6828      6831      6832      6828      6831      6833      6828      6831      6837
      6829      6828      6830      6829      6828      6831      6830      6828      6831
      6831      6837      6834      6832      6831      6833      6832      6831      6837
      6833      6831      6837      6834      6838      6839      6835      6834      6836
      6835      6834      6837      6835      6834      6838      6836      6834      6837
      6836      6834      6838      6837      6834      6838      6838      6839      6840
      6838      6839      6841      6838      6839      6842      6839      6842      6843
      6839      6842      6844      6839      6842      6850      6840      6839      6841
      6840      6839      6842      6841      6839      6842      6842      6844      6845
      6842      6850      6851      6842      6850      6852      6842      6850      6853
      6843      6842      6844      6843      6842      6850      6844      6842      6850
      6844      6845      6846      6844      6845      6847      6845      6847      6848
      6845      6847      6849      6845      6847      6859      6846      6845      6847
      6847      6859      6860      6847      6859      6861      6847      6859      6862
      6848      6847      6849      6848      6847      6859      6849      6847      6859
      6850      6853      6854      6851      6850      6852      6851      6850      6853
      6852      6850      6853      6853      6854      6855      6853      6854      6856
      6854      6856      6857      6854      6856      6858      6854      6856      6906
      6855      6854      6856      6856      6906      6907      6856      6906      6908
      6856      6906      6909      6857      6856      6858      6857      6856      6906
      6858      6856      6906      6859      6862      6863      6859      6862      6864
      6859      6862      6865      6860      6859      6861      6860      6859      6862
      6861      6859      6862      6862      6865      6866      6862      6865      6867
      6863      6862      6864      6863      6862      6865      6864      6862      6865
      6865      6867      6868      6865      6867      6869      6866      6865      6867
      6867      6869      6870      6867      6869      6871      6867      6869      6872
      6868      6867      6869      6869      6872      6873      6869      6872      6874
      6870      6869      6871      6870      6869      6872      6871      6869      6872
      6872      6874      6875      6872      6874      6876      6873      6872      6874
      6874      6876      6877      6874      6876      6878      6874      6876      6879
      6875      6874      6876      6876      6879      6880      6876      6879      6881
      6877      6876      6878      6877      6876      6879      6878      6876      6879
      6879      6881      6882      6879      6881      6883      6880      6879      6881
      6881      6883      6884      6881      6883      6885      6881      6883      6886
      6882      6881      6883      6883      6886      6887      6883      6886      6888
      6884      6883      6885      6884      6883      6886      6885      6883      6886
      6886      6888      6889      6886      6888      6890      6887      6886      6888
      6888      6890      6891      6888      6890      6892      6888      6890      6893
      6889      6888      6890      6890      6893      6894      6890      6893      6895
      6890      6893      6896      6891      6890      6892      6891      6890      6893
      6892      6890      6893      6893      6896      6897      6893      6896      6898
      6893      6896      6899      6894      6893      6895      6894      6893      6896
      6895      6893      6896      6896      6899      6900      6896      6899      6901
      6896      6899      6902      6897      6896      6898      6897      6896      6899
      6898      6896      6899      6899      6902      6903      6899      6902      6904
      6899      6902      6905      6900      6899      6901      6900      6899      6902
      6901      6899      6902      6903      6902      6904      6903      6902      6905
      6904      6902      6905      6906      6909      6910      6906      6909      6911
      6906      6909      6912      6907      6906      6908      6907      6906      6909
      6908      6906      6909      6909      6912      6913      6909      6912      6914
      6909      6912      6915      6910      6909      6911      6910      6909      6912
      6911      6909      6912      6912      6915      6916      6912      6915      6917
      6912      6915      6918      6913      6912      6914      6913      6912      6915
      6914      6912      6915      6915      6918      6919      6915      6918      6920
      6915      6918      6921      6916      6915      6917      6916      6915      6918
      6917      6915      6918      6918      6921      6922      6918      6921      6923
      6918      6921      6924      6919      6918      6920      6919      6918      6921
      6920      6918      6921      6921      6924      6925      6921      6924      6926
      6921      6924      6927      6922      6921      6923      6922      6921      6924
      6923      6921      6924      6924      6927      6928      6924      6927      6929
      6924      6927      6930      6925      6924      6926      6925      6924      6927
      6926      6924      6927      6927      6930      6931      6927      6930      6932
      6927      6930      6933      6928      6927      6929      6928      6927      6930
      6929      6927      6930      6930      6933      6934      6930      6933      6935
      6930      6933      6936      6931      6930      6932      6931      6930      6933
      6932      6930      6933      6933      6936      6937      6933      6936      6938
      6933      6936      6939      6934      6933      6935      6934      6933      6936
      6935      6933      6936      6936      6939      6940      6936      6939      6941
      6936      6939      6942      6937      6936      6938      6937      6936      6939
      6938      6936      6939      6939      6942      6943      6939      6942      6944
      6939      6942      6945      6940      6939      6941      6940      6939      6942
      6941      6939      6942      6942      6945      6946      6942      6945      6947
      6942      6945      6948      6943      6942      6944      6943      6942      6945
      6944      6942      6945      6945      6948      6949      6945      6948      6950
      6945      6948      6951      6946      6945      6947      6946      6945      6948
      6947      6945      6948      6948      6951      6952      6948      6951      6953
      6948      6951      6954      6949      6948      6950      6949      6948      6951
      6950      6948      6951      6952      6951      6953      6952      6951      6954
      6953      6951      6954      6955      6959      6960      6955      6959      6961
      6955      6959      6962      6956      6955      6957      6956      6955      6958
      6956      6955      6959      6957      6955      6958      6957      6955      6959
      6958      6955      6959      6959      6962      6963      6959      6962      6964
      6959      6962      6968      6960      6959      6961      6960      6959      6962
      6961      6959      6962      6962      6968      6965      6963      6962      6964
      6963      6962      6968      6964      6962      6968      6965      6969      6970
      6966      6965      6967      6966      6965      6968      6966      6965      6969
      6967      6965      6968      6967      6965      6969      6968      6965      6969
      6969      6970      6971      6969      6970      6972      6969      6970      6973
      6970      6973      6974      6970      6973      6975      6970      6973      6981
      6971      6970      6972      6971      6970      6973      6972      6970      6973
      6973      6975      6976      6973      6981      6982      6973      6981      6983
      6973      6981      6984      6974      6973      6975      6974      6973      6981
      6975      6973      6981      6975      6976      6977      6975      6976      6978
      6976      6978      6979      6976      6978      6980      6976      6978      6990
      6977      6976      6978      6978      6990      6991      6978      6990      6992
      6978      6990      6993      6979      6978      6980      6979      6978      6990
      6980      6978      6990      6981      6984      6985      6982      6981      6983
      6982      6981      6984      6983      6981      6984      6984      6985      6986
      6984      6985      6987      6985      6987      6988      6985      6987      6989
      6985      6987      7037      6986      6985      6987      6987      7037      7038
      6987      7037      7039      6987      7037      7040      6988      6987      6989
      6988      6987      7037      6989      6987      7037      6990      6993      6994
      6990      6993      6995      6990      6993      6996      6991      6990      6992
      6991      6990      6993      6992      6990      6993      6993      6996      6997
      6993      6996      6998      6994      6993      6995      6994      6993      6996
      6995      6993      6996      6996      6998      6999      6996      6998      7000
      6997      6996      6998      6998      7000      7001      6998      7000      7002
      6998      7000      7003      6999      6998      7000      7000      7003      7004
      7000      7003      7005      7001      7000      7002      7001      7000      7003
      7002      7000      7003      7003      7005      7006      7003      7005      7007
      7004      7003      7005      7005      7007      7008      7005      7007      7009
      7005      7007      7010      7006      7005      7007      7007      7010      7011
      7007      7010      7012      7008      7007      7009      7008      7007      7010
      7009      7007      7010      7010      7012      7013      7010      7012      7014
      7011      7010      7012      7012      7014      7015      7012      7014      7016
      7012      7014      7017      7013      7012      7014      7014      7017      7018
      7014      7017      7019      7015      7014      7016      7015      7014      7017
      7016      7014      7017      7017      7019      7020      7017      7019      7021
      7018      7017      7019      7019      7021      7022      7019      7021      7023
      7019      7021      7024      7020      7019      7021      7021      7024      7025
      7021      7024      7026      7021      7024      7027      7022      7021      7023
      7022      7021      7024      7023      7021      7024      7024      7027      7028
      7024      7027      7029      7024      7027      7030      7025      7024      7026
      7025      7024      7027      7026      7024      7027      7027      7030      7031
      7027      7030      7032      7027      7030      7033      7028      7027      7029
      7028      7027      7030      7029      7027      7030      7030      7033      7034
      7030      7033      7035      7030      7033      7036      7031      7030      7032
      7031      7030      7033      7032      7030      7033      7034      7033      7035
      7034      7033      7036      7035      7033      7036      7037      7040      7041
      7037      7040      7042      7037      7040      7043      7038      7037      7039
      7038      7037      7040      7039      7037      7040      7040      7043      7044
      7040      7043      7045      7040      7043      7046      7041      7040      7042
      7041      7040      7043      7042      7040      7043      7043      7046      7047
      7043      7046      7048      7043      7046      7049      7044      7043      7045
      7044      7043      7046      7045      7043      7046      7046      7049      7050
      7046      7049      7051      7046      7049      7052      7047      7046      7048
      7047      7046      7049      7048      7046      7049      7049      7052      7053
      7049      7052      7054      7049      7052      7055      7050      7049      7051
      7050      7049      7052      7051      7049      7052      7052      7055      7056
      7052      7055      7057      7052      7055      7058      7053      7052      7054
      7053      7052      7055      7054      7052      7055      7055      7058      7059
      7055      7058      7060      7055      7058      7061      7056      7055      7057
      7056      7055      7058      7057      7055      7058      7058      7061      7062
      7058      7061      7063      7058      7061      7064      7059      7058      7060
      7059      7058      7061      7060      7058      7061      7061      7064      7065
      7061      7064      7066      7061      7064      7067      7062      7061      7063
      7062      7061      7064      7063      7061      7064      7064      7067      7068
      7064      7067      7069      7064      7067      7070      7065      7064      7066
      7065      7064      7067      7066      7064      7067      7067      7070      7071
      7067      7070      7072      7067      7070      7073      7068      7067      7069
      7068      7067      7070      7069      7067      7070      7070      7073      7074
      7070      7073      7075      7070      7073      7076      7071      7070      7072
      7071      7070      7073      7072      7070      7073      7073      7076      7077
      7073      7076      7078      7073      7076      7079      7074      7073      7075
      7074      7073      7076      7075      7073      7076      7076      7079      7080
      7076      7079      7081      7076      7079      7082      7077      7076      7078
      7077      7076      7079      7078      7076      7079      7079      7082      7083
      7079      7082      7084      7079      7082      7085      7080      7079      7081
      7080      7079      7082      7081      7079      7082      7083      7082      7084
      7083      7082      7085      7084      7082      7085      7086      7087      7088
      7086      7087      7089      7086      7087      7090      7086      7091      7092
      7086      7091      7093      7086      7091      7094      7086      7095      7096
      7086      7095      7097      7086      7095      7098      7086      7099      7100
      7086      7099      7101      7086      7099      7102      7087      7086      7091
      7087      7086      7095      7087      7086      7099      7088      7087      7089
      7088      7087      7090      7089      7087      7090      7091      7086      7095
      7091      7086      7099      7092      7091      7093      7092      7091      7094
      7093      7091      7094      7095      7086      7099      7096      7095      7097
      7096      7095      7098      7097      7095      7098      7099      7102      7103
      7099      7102      7104      7099      7102      7109      7100      7099      7101
      7100      7099      7102      7101      7099      7102      7102      7109      7105
      7103      7102      7104      7103      7102      7109      7104      7102      7109
      7105      7108      7110      7106      7105      7107      7106      7105      7108
      7106      7105      7109      7107      7105      7108      7107      7105      7109
      7108      7105      7109      7108      7110      7111      7108      7110      7112
      7108      7110      7115      7110      7115      7113      7110      7115      7116
      7110      7115      7117      7111      7110      7112      7111      7110      7115
      7112      7110      7115      7113      7115      7116      7113      7115      7117
      7113      7165      7166      7113      7165      7167      7114      7113      7115
      7114      7113      7165      7115      7113      7165      7115      7117      7118
      7115      7117      7119      7115      7117      7121      7116      7115      7117
      7117      7119      7120      7117      7121      7122      7117      7121      7123
      7118      7117      7119      7118      7117      7121      7119      7117      7121
      7121      7123      7124      7121      7123      7125      7122      7121      7123
      7123      7125      7126      7123      7125      7127      7123      7125      7128
      7124      7123      7125      7125      7128      7129      7125      7128      7130
      7125      7128      7131      7126      7125      7127      7126      7125      7128
      7127      7125      7128      7128      7131      7132      7128      7131      7133
      7128      7131      7134      7129      7128      7130      7129      7128      7131
      7130      7128      7131      7131      7134      7135      7131      7134      7136
      7131      7134      7137      7132      7131      7133      7132      7131      7134
      7133      7131      7134      7134      7137      7138      7134      7137      7139
      7134      7137      7140      7135      7134      7136      7135      7134      7137
      7136      7134      7137      7137      7140      7141      7137      7140      7142
      7137      7140      7143      7138      7137      7139      7138      7137      7140
      7139      7137      7140      7140      7143      7144      7140      7143      7145
      7140      7143      7146      7141      7140      7142      7141      7140      7143
      7142      7140      7143      7143      7146      7147      7143      7146      7148
      7143      7146      7149      7144      7143      7145      7144      7143      7146
      7145      7143      7146      7146      7149      7150      7146      7149      7151
      7146      7149      7152      7147      7146      7148      7147      7146      7149
      7148      7146      7149      7149      7152      7153      7149      7152      7154
      7149      7152      7155      7150      7149      7151      7150      7149      7152
      7151      7149      7152      7152      7155      7156      7152      7155      7157
      7152      7155      7158      7153      7152      7154      7153      7152      7155
      7154      7152      7155      7155      7158      7159      7155      7158      7160
      7155      7158      7161      7156      7155      7157      7156      7155      7158
      7157      7155      7158      7158      7161      7162      7158      7161      7163
      7158      7161      7164      7159      7158      7160      7159      7158      7161
      7160      7158      7161      7162      7161      7163      7162      7161      7164
      7163      7161      7164      7165      7167      7168      7165      7167      7169
      7165      7167      7170      7166      7165      7167      7167      7170      7171
      7167      7170      7172      7167      7170      7173      7168      7167      7169
      7168      7167      7170      7169      7167      7170      7170      7173      7174
      7170      7173      7175      7170      7173      7176      7171      7170      7172
      7171      7170      7173      7172      7170      7173      7173      7176      7177
      7173      7176      7178      7173      7176      7179      7174      7173      7175
      7174      7173      7176      7175      7173      7176      7176      7179      7180
      7176      7179      7181      7176      7179      7182      7177      7176      7178
      7177      7176      7179      7178      7176      7179      7179      7182      7183
      7179      7182      7184      7179      7182      7185      7180      7179      7181
      7180      7179      7182      7181      7179      7182      7182      7185      7186
      7182      7185      7187      7182      7185      7188      7183      7182      7184
      7183      7182      7185      7184      7182      7185      7185      7188      7189
      7185      7188      7190      7186      7185      7187      7186      7185      7188
      7187      7185      7188      7188      7190      7191      7188      7190      7192
      7189      7188      7190      7190      7192      7193      7190      7192      7194
      7190      7192      7195      7191      7190      7192      7192      7195      7196
      7192      7195      7197      7192      7195      7198      7193      7192      7194
      7193      7192      7195      7194      7192      7195      7195      7198      7199
      7195      7198      7200      7195      7198      7201      7196      7195      7197
      7196      7195      7198      7197      7195      7198      7198      7201      7202
      7198      7201      7203      7198      7201      7204      7199      7198      7200
      7199      7198      7201      7200      7198      7201      7201      7204      7205
      7201      7204      7206      7201      7204      7207      7202      7201      7203
      7202      7201      7204      7203      7201      7204      7204      7207      7208
      7204      7207      7209      7204      7207      7210      7205      7204      7206
      7205      7204      7207      7206      7204      7207      7207      7210      7211
      7207      7210      7212      7207      7210      7213      7208      7207      7209
      7208      7207      7210      7209      7207      7210      7210      7213      7214
      7210      7213      7215      7210      7213      7216      7211      7210      7212
      7211      7210      7213      7212      7210      7213      7214      7213      7215
      7214      7213      7216      7215      7213      7216      7217      7219      7220
      7217      7221      7222      7217      7221      7223      7217      7221      7224
      7217      7263      7260      7217      7263      7264      7217      7263      7265
      7218      7217      7219      7218      7217      7221      7218      7217      7263
      7219      7217      7221      7219      7217      7263      7221      7217      7263
      7221      7224      7225      7221      7224      7255      7222      7221      7223
      7222      7221      7224      7223      7221      7224      7224      7225      7226
      7224      7225      7227      7224      7255      7253      7224      7255      7256
      7224      7255      7260      7225      7224      7255      7225      7227      7228
      7225      7227      7229      7225      7227      7230      7226      7225      7227
      7227      7230      7231      7227      7230      7232      7227      7230      7253
      7228      7227      7229      7228      7227      7230      7229      7227      7230
      7230      7232      7233      7230      7232      7234      7230      7232      7242
      7230      7253      7250      7230      7253      7254      7230      7253      7255
      7231      7230      7232      7231      7230      7253      7232      7230      7253
      7232      7234      7235      7232      7234      7236      7232      7234      7237
      7232      7242      7240      7232      7242      7243      7232      7242      7247
      7233      7232      7234      7233      7232      7242      7234      7232      7242
      7234      7237      7238      7234      7237      7239      7234      7237      7240
      7235      7234      7236      7235      7234      7237      7236      7234      7237
      7237      7240      7241      7237      7240      7242      7237      7240      7266
      7238      7237      7239      7238      7237      7240      7239      7237      7240
      7240      7242      7243      7240      7242      7247      7240      7266      7267
      7240      7266      7268      7240      7266      7272      7241      7240      7242
      7241      7240      7266      7242      7240      7266      7242      7243      7244
      7242      7243      7245      7242      7243      7246      7242      7247      7248
      7242      7247      7249      7242      7247      7250      7243      7242      7247
      7244      7243      7245      7244      7243      7246      7245      7243      7246
      7247      7250      7251      7247      7250      7252      7247      7250      7253
      7248      7247      7249      7248      7247      7250      7249      7247      7250
      7250      7253      7254      7250      7253      7255      7251      7250      7252
      7251      7250      7253      7252      7250      7253      7253      7255      7256
      7253      7255      7260      7254      7253      7255      7255      7256      7257
      7255      7256      7258      7255      7256      7259      7255      7260      7261
      7255      7260      7262      7255      7260      7263      7256      7255      7260
      7257      7256      7258      7257      7256      7259      7258      7256      7259
      7260      7263      7264      7260      7263      7265      7261      7260      7262
      7261      7260      7263      7262      7260      7263      7264      7263      7265
      7266      7268      7269      7266      7268      7270      7266      7268      7271
      7266      7272      7273      7266      7272      7274      7266      7272      7275
      7267      7266      7268      7267      7266      7272      7268      7266      7272
      7269      7268      7270      7269      7268      7271      7270      7268      7271
      7272      7275      7276      7272      7275      7277      7272      7275      7278
      7273      7272      7274      7273      7272      7275      7274      7272      7275
      7275      7278      7279      7275      7278      7280      7275      7278      7281
      7276      7275      7277      7276      7275      7278      7277      7275      7278
      7278      7281      7282      7278      7281      7283      7278      7281      7287
      7279      7278      7280      7279      7278      7281      7280      7278      7281
      7281      7283      7284      7281      7283      7285      7281      7283      7286
      7281      7287      7288      7281      7287      7289      7281      7287      7290
      7282      7281      7283      7282      7281      7287      7283      7281      7287
      7284      7283      7285      7284      7283      7286      7285      7283      7286
      7288      7287      7289      7288      7287      7290      7289      7287      7290
      7291      7293      7294      7291      7295      7296      7291      7295      7297
      7291      7295      7298      7291      7337      7334      7291      7337      7338
      7291      7337      7339      7292      7291      7293      7292      7291      7295
      7292      7291      7337      7293      7291      7295      7293      7291      7337
      7295      7291      7337      7295      7298      7299      7295      7298      7329
      7296      7295      7297      7296      7295      7298      7297      7295      7298
      7298      7299      7300      7298      7299      7301      7298      7329      7327
      7298      7329      7330      7298      7329      7334      7299      7298      7329
      7299      7301      7302      7299      7301      7303      7299      7301      7304
      7300      7299      7301      7301      7304      7305      7301      7304      7306
      7301      7304      7327      7302      7301      7303      7302      7301      7304
      7303      7301      7304      7304      7306      7307      7304      7306      7308
      7304      7306      7316      7304      7327      7324      7304      7327      7328
      7304      7327      7329      7305      7304      7306      7305      7304      7327
      7306      7304      7327      7306      7308      7309      7306      7308      7310
      7306      7308      7311      7306      7316      7314      7306      7316      7317
      7306      7316      7321      7307      7306      7308      7307      7306      7316
      7308      7306      7316      7308      7311      7312      7308      7311      7313
      7308      7311      7314      7309      7308      7310      7309      7308      7311
      7310      7308      7311      7311      7314      7315      7311      7314      7316
      7311      7314      7340      7312      7311      7313      7312      7311      7314
      7313      7311      7314      7314      7316      7317      7314      7316      7321
      7314      7340      7341      7314      7340      7342      7314      7340      7346
      7315      7314      7316      7315      7314      7340      7316      7314      7340
      7316      7317      7318      7316      7317      7319      7316      7317      7320
      7316      7321      7322      7316      7321      7323      7316      7321      7324
      7317      7316      7321      7318      7317      7319      7318      7317      7320
      7319      7317      7320      7321      7324      7325      7321      7324      7326
      7321      7324      7327      7322      7321      7323      7322      7321      7324
      7323      7321      7324      7324      7327      7328      7324      7327      7329
      7325      7324      7326      7325      7324      7327      7326      7324      7327
      7327      7329      7330      7327      7329      7334      7328      7327      7329
      7329      7330      7331      7329      7330      7332      7329      7330      7333
      7329      7334      7335      7329      7334      7336      7329      7334      7337
      7330      7329      7334      7331      7330      7332      7331      7330      7333
      7332      7330      7333      7334      7337      7338      7334      7337      7339
      7335      7334      7336      7335      7334      7337      7336      7334      7337
      7338      7337      7339      7340      7342      7343      7340      7342      7344
      7340      7342      7345      7340      7346      7347      7340      7346      7348
      7340      7346      7349      7341      7340      7342      7341      7340      7346
      7342      7340      7346      7343      7342      7344      7343      7342      7345
      7344      7342      7345      7346      7349      7350      7346      7349      7351
      7346      7349      7352      7347      7346      7348      7347      7346      7349
      7348      7346      7349      7349      7352      7353      7349      7352      7354
      7349      7352      7355      7350      7349      7351      7350      7349      7352
      7351      7349      7352      7352      7355      7356      7352      7355      7357
      7352      7355      7361      7353      7352      7354      7353      7352      7355
      7354      7352      7355      7355      7357      7358      7355      7357      7359
      7355      7357      7360      7355      7361      7362      7355      7361      7363
      7355      7361      7364      7356      7355      7357      7356      7355      7361
      7357      7355      7361      7358      7357      7359      7358      7357      7360
      7359      7357      7360      7362      7361      7363      7362      7361      7364
      7363      7361      7364      7365      7369      7370      7365      7369      7371
      7365      7369      7374      7366      7365      7367      7366      7365      7368
      7366      7365      7369      7367      7365      7368      7367      7365      7369
      7368      7365      7369      7369      7371      7372      7369      7371      7373
      7369      7374      7375      7369      7374      7376      7369      7374      7380
      7370      7369      7371      7370      7369      7374      7371      7369      7374
      7372      7371      7373      7374      7380      7377      7375      7374      7376
      7375      7374      7380      7376      7374      7380      7377      7381      7382
      7378      7377      7379      7378      7377      7380      7378      7377      7381
      7379      7377      7380      7379      7377      7381      7380      7377      7381
      7381      7382      7383      7381      7382      7384      7381      7382      7385
      7382      7385      7386      7382      7385      7387      7382      7385      7393
      7383      7382      7384      7383      7382      7385      7384      7382      7385
      7385      7387      7388      7385      7393      7394      7385      7393      7395
      7385      7393      7396      7386      7385      7387      7386      7385      7393
      7387      7385      7393      7387      7388      7389      7387      7388      7390
      7388      7390      7391      7388      7390      7392      7388      7390      7402
      7389      7388      7390      7390      7402      7403      7390      7402      7404
      7390      7402      7405      7391      7390      7392      7391      7390      7402
      7392      7390      7402      7393      7396      7397      7394      7393      7395
      7394      7393      7396      7395      7393      7396      7396      7397      7398
      7396      7397      7399      7397      7399      7400      7397      7399      7401
      7397      7399      7449      7398      7397      7399      7399      7449      7450
      7399      7449      7451      7399      7449      7452      7400      7399      7401
      7400      7399      7449      7401      7399      7449      7402      7405      7406
      7402      7405      7407      7402      7405      7408      7403      7402      7404
      7403      7402      7405      7404      7402      7405      7405      7408      7409
      7405      7408      7410      7406      7405      7407      7406      7405      7408
      7407      7405      7408      7408      7410      7411      7408      7410      7412
      7409      7408      7410      7410      7412      7413      7410      7412      7414
      7410      7412      7415      7411      7410      7412      7412      7415      7416
      7412      7415      7417      7413      7412      7414      7413      7412      7415
      7414      7412      7415      7415      7417      7418      7415      7417      7419
      7416      7415      7417      7417      7419      7420      7417      7419      7421
      7417      7419      7422      7418      7417      7419      7419      7422      7423
      7419      7422      7424      7420      7419      7421      7420      7419      7422
      7421      7419      7422      7422      7424      7425      7422      7424      7426
      7423      7422      7424      7424      7426      7427      7424      7426      7428
      7424      7426      7429      7425      7424      7426      7426      7429      7430
      7426      7429      7431      7427      7426      7428      7427      7426      7429
      7428      7426      7429      7429      7431      7432      7429      7431      7433
      7430      7429      7431      7431      7433      7434      7431      7433      7435
      7431      7433      7436      7432      7431      7433      7433      7436      7437
      7433      7436      7438      7433      7436      7439      7434      7433      7435
      7434      7433      7436      7435      7433      7436      7436      7439      7440
      7436      7439      7441      7436      7439      7442      7437      7436      7438
      7437      7436      7439      7438      7436      7439      7439      7442      7443
      7439      7442      7444      7439      7442      7445      7440      7439      7441
      7440      7439      7442      7441      7439      7442      7442      7445      7446
      7442      7445      7447      7442      7445      7448      7443      7442      7444
      7443      7442      7445      7444      7442      7445      7446      7445      7447
      7446      7445      7448      7447      7445      7448      7449      7452      7453
      7449      7452      7454      7449      7452      7455      7450      7449      7451
      7450      7449      7452      7451      7449      7452      7452      7455      7456
      7452      7455      7457      7452      7455      7458      7453      7452      7454
      7453      7452      7455      7454      7452      7455      7455      7458      7459
      7455      7458      7460      7455      7458      7461      7456      7455      7457
      7456      7455      7458      7457      7455      7458      7458      7461      7462
      7458      7461      7463      7458      7461      7464      7459      7458      7460
      7459      7458      7461      7460      7458      7461      7461      7464      7465
      7461      7464      7466      7461      7464      7467      7462      7461      7463
      7462      7461      7464      7463      7461      7464      7464      7467      7468
      7464      7467      7469      7464      7467      7470      7465      7464      7466
      7465      7464      7467      7466      7464      7467      7467      7470      7471
      7467      7470      7472      7467      7470      7473      7468      7467      7469
      7468      7467      7470      7469      7467      7470      7470      7473      7474
      7470      7473      7475      7470      7473      7476      7471      7470      7472
      7471      7470      7473      7472      7470      7473      7473      7476      7477
      7473      7476      7478      7473      7476      7479      7474      7473      7475
      7474      7473      7476      7475      7473      7476      7476      7479      7480
      7476      7479      7481      7476      7479      7482      7477      7476      7478
      7477      7476      7479      7478      7476      7479      7479      7482      7483
      7479      7482      7484      7479      7482      7485      7480      7479      7481
      7480      7479      7482      7481      7479      7482      7482      7485      7486
      7482      7485      7487      7482      7485      7488      7483      7482      7484
      7483      7482      7485      7484      7482      7485      7485      7488      7489
      7485      7488      7490      7485      7488      7491      7486      7485      7487
      7486      7485      7488      7487      7485      7488      7488      7491      7492
      7488      7491      7493      7488      7491      7494      7489      7488      7490
      7489      7488      7491      7490      7488      7491      7491      7494      7495
      7491      7494      7496      7491      7494      7497      7492      7491      7493
      7492      7491      7494      7493      7491      7494      7495      7494      7496
      7495      7494      7497      7496      7494      7497      7498      7500      7501
      7498      7502      7503      7498      7502      7504      7498      7502      7505
      7498      7544      7541      7498      7544      7545      7498      7544      7546
      7499      7498      7500      7499      7498      7502      7499      7498      7544
      7500      7498      7502      7500      7498      7544      7502      7498      7544
      7502      7505      7506      7502      7505      7536      7503      7502      7504
      7503      7502      7505      7504      7502      7505      7505      7506      7507
      7505      7506      7508      7505      7536      7534      7505      7536      7537
      7505      7536      7541      7506      7505      7536      7506      7508      7509
      7506      7508      7510      7506      7508      7511      7507      7506      7508
      7508      7511      7512      7508      7511      7513      7508      7511      7534
      7509      7508      7510      7509      7508      7511      7510      7508      7511
      7511      7513      7514      7511      7513      7515      7511      7513      7523
      7511      7534      7531      7511      7534      7535      7511      7534      7536
      7512      7511      7513      7512      7511      7534      7513      7511      7534
      7513      7515      7516      7513      7515      7517      7513      7515      7518
      7513      7523      7521      7513      7523      7524      7513      7523      7528
      7514      7513      7515      7514      7513      7523      7515      7513      7523
      7515      7518      7519      7515      7518      7520      7515      7518      7521
      7516      7515      7517      7516      7515      7518      7517      7515      7518
      7518      7521      7522      7518      7521      7523      7518      7521      7547
      7519      7518      7520      7519      7518      7521      7520      7518      7521
      7521      7523      7524      7521      7523      7528      7521      7547      7548
      7521      7547      7549      7521      7547      7553      7522      7521      7523
      7522      7521      7547      7523      7521      7547      7523      7524      7525
      7523      7524      7526      7523      7524      7527      7523      7528      7529
      7523      7528      7530      7523      7528      7531      7524      7523      7528
      7525      7524      7526      7525      7524      7527      7526      7524      7527
      7528      7531      7532      7528      7531      7533      7528      7531      7534
      7529      7528      7530      7529      7528      7531      7530      7528      7531
      7531      7534      7535      7531      7534      7536      7532      7531      7533
      7532      7531      7534      7533      7531      7534      7534      7536      7537
      7534      7536      7541      7535      7534      7536      7536      7537      7538
      7536      7537      7539      7536      7537      7540      7536      7541      7542
      7536      7541      7543      7536      7541      7544      7537      7536      7541
      7538      7537      7539      7538      7537      7540      7539      7537      7540
      7541      7544      7545      7541      7544      7546      7542      7541      7543
      7542      7541      7544      7543      7541      7544      7545      7544      7546
      7547      7549      7550      7547      7549      7551      7547      7549      7552
      7547      7553      7554      7547      7553      7555      7547      7553      7556
      7548      7547      7549      7548      7547      7553      7549      7547      7553
      7550      7549      7551      7550      7549      7552      7551      7549      7552
      7553      7556      7557      7553      7556      7558      7553      7556      7559
      7554      7553      7555      7554      7553      7556      7555      7553      7556
      7556      7559      7560      7556      7559      7561      7556      7559      7562
      7557      7556      7558      7557      7556      7559      7558      7556      7559
      7559      7562      7563      7559      7562      7564      7559      7562      7568
      7560      7559      7561      7560      7559      7562      7561      7559      7562
      7562      7564      7565      7562      7564      7566      7562      7564      7567
      7562      7568      7569      7562      7568      7570      7562      7568      7571
      7563      7562      7564      7563      7562      7568      7564      7562      7568
      7565      7564      7566      7565      7564      7567      7566      7564      7567
      7569      7568      7570      7569      7568      7571      7570      7568      7571
      7572      7573      7574      7572      7573      7575      7572      7573      7576
      7572      7577      7578      7572      7577      7579      7572      7577      7580
      7572      7581      7582      7572      7581      7583      7572      7581      7584
      7572      7585      7586      7572      7585      7587      7572      7585      7588
      7573      7572      7577      7573      7572      7581      7573      7572      7585
      7574      7573      7575      7574      7573      7576      7575      7573      7576
      7577      7572      7581      7577      7572      7585      7578      7577      7579
      7578      7577      7580      7579      7577      7580      7581      7572      7585
      7582      7581      7583      7582      7581      7584      7583      7581      7584
      7585      7588      7589      7585      7588      7590      7585      7588      7595
      7586      7585      7587      7586      7585      7588      7587      7585      7588
      7588      7595      7591      7589      7588      7590      7589      7588      7595
      7590      7588      7595      7591      7594      7596      7592      7591      7593
      7592      7591      7594      7592      7591      7595      7593      7591      7594
      7593      7591      7595      7594      7591      7595      7594      7596      7597
      7594      7596      7598      7594      7596      7601      7596      7601      7599
      7596      7601      7602      7596      7601      7603      7597      7596      7598
      7597      7596      7601      7598      7596      7601      7599      7601      7602
      7599      7601      7603      7599      7651      7652      7599      7651      7653
      7600      7599      7601      7600      7599      7651      7601      7599      7651
      7601      7603      7604      7601      7603      7605      7601      7603      7607
      7602      7601      7603      7603      7605      7606      7603      7607      7608
      7603      7607      7609      7604      7603      7605      7604      7603      7607
      7605      7603      7607      7607      7609      7610      7607      7609      7611
      7608      7607      7609      7609      7611      7612      7609      7611      7613
      7609      7611      7614      7610      7609      7611      7611      7614      7615
      7611      7614      7616      7611      7614      7617      7612      7611      7613
      7612      7611      7614      7613      7611      7614      7614      7617      7618
      7614      7617      7619      7614      7617      7620      7615      7614      7616
      7615      7614      7617      7616      7614      7617      7617      7620      7621
      7617      7620      7622      7617      7620      7623      7618      7617      7619
      7618      7617      7620      7619      7617      7620      7620      7623      7624
      7620      7623      7625      7620      7623      7626      7621      7620      7622
      7621      7620      7623      7622      7620      7623      7623      7626      7627
      7623      7626      7628      7623      7626      7629      7624      7623      7625
      7624      7623      7626      7625      7623      7626      7626      7629      7630
      7626      7629      7631      7626      7629      7632      7627      7626      7628
      7627      7626      7629      7628      7626      7629      7629      7632      7633
      7629      7632      7634      7629      7632      7635      7630      7629      7631
      7630      7629      7632      7631      7629      7632      7632      7635      7636
      7632      7635      7637      7632      7635      7638      7633      7632      7634
      7633      7632      7635      7634      7632      7635      7635      7638      7639
      7635      7638      7640      7635      7638      7641      7636      7635      7637
      7636      7635      7638      7637      7635      7638      7638      7641      7642
      7638      7641      7643      7638      7641      7644      7639      7638      7640
      7639      7638      7641      7640      7638      7641      7641      7644      7645
      7641      7644      7646      7641      7644      7647      7642      7641      7643
      7642      7641      7644      7643      7641      7644      7644      7647      7648
      7644      7647      7649      7644      7647      7650      7645      7644      7646
      7645      7644      7647      7646      7644      7647      7648      7647      7649
      7648      7647      7650      7649      7647      7650      7651      7653      7654
      7651      7653      7655      7651      7653      7656      7652      7651      7653
      7653      7656      7657      7653      7656      7658      7653      7656      7659
      7654      7653      7655      7654      7653      7656      7655      7653      7656
      7656      7659      7660      7656      7659      7661      7656      7659      7662
      7657      7656      7658      7657      7656      7659      7658      7656      7659
      7659      7662      7663      7659      7662      7664      7659      7662      7665
      7660      7659      7661      7660      7659      7662      7661      7659      7662
      7662      7665      7666      7662      7665      7667      7662      7665      7668
      7663      7662      7664      7663      7662      7665      7664      7662      7665
      7665      7668      7669      7665      7668      7670      7665      7668      7671
      7666      7665      7667      7666      7665      7668      7667      7665      7668
      7668      7671      7672      7668      7671      7673      7668      7671      7674
      7669      7668      7670      7669      7668      7671      7670      7668      7671
      7671      7674      7675      7671      7674      7676      7672      7671      7673
      7672      7671      7674      7673      7671      7674      7674      7676      7677
      7674      7676      7678      7675      7674      7676      7676      7678      7679
      7676      7678      7680      7676      7678      7681      7677      7676      7678
      7678      7681      7682      7678      7681      7683      7678      7681      7684
      7679      7678      7680      7679      7678      7681      7680      7678      7681
      7681      7684      7685      7681      7684      7686      7681      7684      7687
      7682      7681      7683      7682      7681      7684      7683      7681      7684
      7684      7687      7688      7684      7687      7689      7684      7687      7690
      7685      7684      7686      7685      7684      7687      7686      7684      7687
      7687      7690      7691      7687      7690      7692      7687      7690      7693
      7688      7687      7689      7688      7687      7690      7689      7687      7690
      7690      7693      7694      7690      7693      7695      7690      7693      7696
      7691      7690      7692      7691      7690      7693      7692      7690      7693
      7693      7696      7697      7693      7696      7698      7693      7696      7699
      7694      7693      7695      7694      7693      7696      7695      7693      7696
      7696      7699      7700      7696      7699      7701      7696      7699      7702
      7697      7696      7698      7697      7696      7699      7698      7696      7699
      7700      7699      7701      7700      7699      7702      7701      7699      7702
      7703      7707      7708      7703      7707      7709      7703      7707      7710
      7704      7703      7705      7704      7703      7706      7704      7703      7707
      7705      7703      7706      7705      7703      7707      7706      7703      7707
      7707      7710      7711      7707      7710      7712      7707      7710      7716
      7708      7707      7709      7708      7707      7710      7709      7707      7710
      7710      7716      7713      7711      7710      7712      7711      7710      7716
      7712      7710      7716      7713      7717      7718      7714      7713      7715
      7714      7713      7716      7714      7713      7717      7715      7713      7716
      7715      7713      7717      7716      7713      7717      7717      7718      7719
      7717      7718      7720      7717      7718      7721      7718      7721      7722
      7718      7721      7723      7718      7721      7729      7719      7718      7720
      7719      7718      7721      7720      7718      7721      7721      7723      7724
      7721      7729      7730      7721      7729      7731      7721      7729      7732
      7722      7721      7723      7722      7721      7729      7723      7721      7729
      7723      7724      7725      7723      7724      7726      7724      7726      7727
      7724      7726      7728      7724      7726      7738      7725      7724      7726
      7726      7738      7739      7726      7738      7740      7726      7738      7741
      7727      7726      7728      7727      7726      7738      7728      7726      7738
      7729      7732      7733      7730      7729      7731      7730      7729      7732
      7731      7729      7732      7732      7733      7734      7732      7733      7735
      7733      7735      7736      7733      7735      7737      7733      7735      7785
      7734      7733      7735      7735      7785      7786      7735      7785      7787
      7735      7785      7788      7736      7735      7737      7736      7735      7785
      7737      7735      7785      7738      7741      7742      7738      7741      7743
      7738      7741      7744      7739      7738      7740      7739      7738      7741
      7740      7738      7741      7741      7744      7745      7741      7744      7746
      7742      7741      7743      7742      7741      7744      7743      7741      7744
      7744      7746      7747      7744      7746      7748      7745      7744      7746
      7746      7748      7749      7746      7748      7750      7746      7748      7751
      7747      7746      7748      7748      7751      7752      7748      7751      7753
      7749      7748      7750      7749      7748      7751      7750      7748      7751
      7751      7753      7754      7751      7753      7755      7752      7751      7753
      7753      7755      7756      7753      7755      7757      7753      7755      7758
      7754      7753      7755      7755      7758      7759      7755      7758      7760
      7756      7755      7757      7756      7755      7758      7757      7755      7758
      7758      7760      7761      7758      7760      7762      7759      7758      7760
      7760      7762      7763      7760      7762      7764      7760      7762      7765
      7761      7760      7762      7762      7765      7766      7762      7765      7767
      7763      7762      7764      7763      7762      7765      7764      7762      7765
      7765      7767      7768      7765      7767      7769      7766      7765      7767
      7767      7769      7770      7767      7769      7771      7767      7769      7772
      7768      7767      7769      7769      7772      7773      7769      7772      7774
      7769      7772      7775      7770      7769      7771      7770      7769      7772
      7771      7769      7772      7772      7775      7776      7772      7775      7777
      7772      7775      7778      7773      7772      7774      7773      7772      7775
      7774      7772      7775      7775      7778      7779      7775      7778      7780
      7775      7778      7781      7776      7775      7777      7776      7775      7778
      7777      7775      7778      7778      7781      7782      7778      7781      7783
      7778      7781      7784      7779      7778      7780      7779      7778      7781
      7780      7778      7781      7782      7781      7783      7782      7781      7784
      7783      7781      7784      7785      7788      7789      7785      7788      7790
      7785      7788      7791      7786      7785      7787      7786      7785      7788
      7787      7785      7788      7788      7791      7792      7788      7791      7793
      7788      7791      7794      7789      7788      7790      7789      7788      7791
      7790      7788      7791      7791      7794      7795      7791      7794      7796
      7791      7794      7797      7792      7791      7793      7792      7791      7794
      7793      7791      7794      7794      7797      7798      7794      7797      7799
      7794      7797      7800      7795      7794      7796      7795      7794      7797
      7796      7794      7797      7797      7800      7801      7797      7800      7802
      7797      7800      7803      7798      7797      7799      7798      7797      7800
      7799      7797      7800      7800      7803      7804      7800      7803      7805
      7800      7803      7806      7801      7800      7802      7801      7800      7803
      7802      7800      7803      7803      7806      7807      7803      7806      7808
      7803      7806      7809      7804      7803      7805      7804      7803      7806
      7805      7803      7806      7806      7809      7810      7806      7809      7811
      7806      7809      7812      7807      7806      7808      7807      7806      7809
      7808      7806      7809      7809      7812      7813      7809      7812      7814
      7809      7812      7815      7810      7809      7811      7810      7809      7812
      7811      7809      7812      7812      7815      7816      7812      7815      7817
      7812      7815      7818      7813      7812      7814      7813      7812      7815
      7814      7812      7815      7815      7818      7819      7815      7818      7820
      7815      7818      7821      7816      7815      7817      7816      7815      7818
      7817      7815      7818      7818      7821      7822      7818      7821      7823
      7818      7821      7824      7819      7818      7820      7819      7818      7821
      7820      7818      7821      7821      7824      7825      7821      7824      7826
      7821      7824      7827      7822      7821      7823      7822      7821      7824
      7823      7821      7824      7824      7827      7828      7824      7827      7829
      7824      7827      7830      7825      7824      7826      7825      7824      7827
      7826      7824      7827      7827      7830      7831      7827      7830      7832
      7827      7830      7833      7828      7827      7829      7828      7827      7830
      7829      7827      7830      7831      7830      7832      7831      7830      7833
      7832      7830      7833      7834      7836      7837      7834      7838      7839
      7834      7838      7840      7834      7838      7841      7834      7880      7877
      7834      7880      7881      7834      7880      7882      7835      7834      7836
      7835      7834      7838      7835      7834      7880      7836      7834      7838
      7836      7834      7880      7838      7834      7880      7838      7841      7842
      7838      7841      7872      7839      7838      7840      7839      7838      7841
      7840      7838      7841      7841      7842      7843      7841      7842      7844
      7841      7872      7870      7841      7872      7873      7841      7872      7877
      7842      7841      7872      7842      7844      7845      7842      7844      7846
      7842      7844      7847      7843      7842      7844      7844      7847      7848
      7844      7847      7849      7844      7847      7870      7845      7844      7846
      7845      7844      7847      7846      7844      7847      7847      7849      7850
      7847      7849      7851      7847      7849      7859      7847      7870      7867
      7847      7870      7871      7847      7870      7872      7848      7847      7849
      7848      7847      7870      7849      7847      7870      7849      7851      7852
      7849      7851      7853      7849      7851      7854      7849      7859      7857
      7849      7859      7860      7849      7859      7864      7850      7849      7851
      7850      7849      7859      7851      7849      7859      7851      7854      7855
      7851      7854      7856      7851      7854      7857      7852      7851      7853
      7852      7851      7854      7853      7851      7854      7854      7857      7858
      7854      7857      7859      7854      7857      7883      7855      7854      7856
      7855      7854      7857      7856      7854      7857      7857      7859      7860
      7857      7859      7864      7857      7883      7884      7857      7883      7885
      7857      7883      7889      7858      7857      7859      7858      7857      7883
      7859      7857      7883      7859      7860      7861      7859      7860      7862
      7859      7860      7863      7859      7864      7865      7859      7864      7866
      7859      7864      7867      7860      7859      7864      7861      7860      7862
      7861      7860      7863      7862      7860      7863      7864      7867      7868
      7864      7867      7869      7864      7867      7870      7865      7864      7866
      7865      7864      7867      7866      7864      7867      7867      7870      7871
      7867      7870      7872      7868      7867      7869      7868      7867      7870
      7869      7867      7870      7870      7872      7873      7870      7872      7877
      7871      7870      7872      7872      7873      7874      7872      7873      7875
      7872      7873      7876      7872      7877      7878      7872      7877      7879
      7872      7877      7880      7873      7872      7877      7874      7873      7875
      7874      7873      7876      7875      7873      7876      7877      7880      7881
      7877      7880      7882      7878      7877      7879      7878      7877      7880
      7879      7877      7880      7881      7880      7882      7883      7885      7886
      7883      7885      7887      7883      7885      7888      7883      7889      7890
      7883      7889      7891      7883      7889      7892      7884      7883      7885
      7884      7883      7889      7885      7883      7889      7886      7885      7887
      7886      7885      7888      7887      7885      7888      7889      7892      7893
      7889      7892      7894      7889      7892      7895      7890      7889      7891
      7890      7889      7892      7891      7889      7892      7892      7895      7896
      7892      7895      7897      7892      7895      7898      7893      7892      7894
      7893      7892      7895      7894      7892      7895      7895      7898      7899
      7895      7898      7900      7895      7898      7904      7896      7895      7897
      7896      7895      7898      7897      7895      7898      7898      7900      7901
      7898      7900      7902      7898      7900      7903      7898      7904      7905
      7898      7904      7906      7898      7904      7907      7899      7898      7900
      7899      7898      7904      7900      7898      7904      7901      7900      7902
      7901      7900      7903      7902      7900      7903      7905      7904      7906
      7905      7904      7907      7906      7904      7907      7908      7909      7910
      7908      7909      7911      7908      7909      7924      7908      7912      7913
      7908      7912      7914      7908      7912      7915      7908      7916      7917
      7908      7916      7918      7908      7916      7919      7908      7920      7921
      7908      7920      7922      7908      7920      7923      7909      7908      7912
      7909      7908      7916      7909      7908      7920      7909      7924      7925
      7909      7924      7926      7909      7924      7930      7910      7909      7911
      7910      7909      7924      7911      7909      7924      7912      7908      7916
      7912      7908      7920      7913      7912      7914      7913      7912      7915
      7914      7912      7915      7916      7908      7920      7917      7916      7918
      7917      7916      7919      7918      7916      7919      7921      7920      7922
      7921      7920      7923      7922      7920      7923      7924      7930      7927
      7925      7924      7926      7925      7924      7930      7926      7924      7930
      7927      7931      7932      7928      7927      7929      7928      7927      7930
      7928      7927      7931      7929      7927      7930      7929      7927      7931
      7930      7927      7931      7931      7932      7933      7931      7932      7934
      7931      7932      7935      7932      7935      7936      7932      7935      7937
      7932      7935      7943      7933      7932      7934      7933      7932      7935
      7934      7932      7935      7935      7937      7938      7935      7943      7944
      7935      7943      7945      7935      7943      7946      7936      7935      7937
      7936      7935      7943      7937      7935      7943      7937      7938      7939
      7937      7938      7940      7938      7940      7941      7938      7940      7942
      7938      7940      7952      7939      7938      7940      7940      7952      7953
      7940      7952      7954      7940      7952      7955      7941      7940      7942
      7941      7940      7952      7942      7940      7952      7943      7946      7947
      7944      7943      7945      7944      7943      7946      7945      7943      7946
      7946      7947      7948      7946      7947      7949      7947      7949      7950
      7947      7949      7951      7947      7949      7999      7948      7947      7949
      7949      7999      8000      7949      7999      8001      7949      7999      8002
      7950      7949      7951      7950      7949      7999      7951      7949      7999
      7952      7955      7956      7952      7955      7957      7952      7955      7958
      7953      7952      7954      7953      7952      7955      7954      7952      7955
      7955      7958      7959      7955      7958      7960      7956      7955      7957
      7956      7955      7958      7957      7955      7958      7958      7960      7961
      7958      7960      7962      7959      7958      7960      7960      7962      7963
      7960      7962      7964      7960      7962      7965      7961      7960      7962
      7962      7965      7966      7962      7965      7967      7963      7962      7964
      7963      7962      7965      7964      7962      7965      7965      7967      7968
      7965      7967      7969      7966      7965      7967      7967      7969      7970
      7967      7969      7971      7967      7969      7972      7968      7967      7969
      7969      7972      7973      7969      7972      7974      7970      7969      7971
      7970      7969      7972      7971      7969      7972      7972      7974      7975
      7972      7974      7976      7973      7972      7974      7974      7976      7977
      7974      7976      7978      7974      7976      7979      7975      7974      7976
      7976      7979      7980      7976      7979      7981      7977      7976      7978
      7977      7976      7979      7978      7976      7979      7979      7981      7982
      7979      7981      7983      7980      7979      7981      7981      7983      7984
      7981      7983      7985      7981      7983      7986      7982      7981      7983
      7983      7986      7987      7983      7986      7988      7983      7986      7989
      7984      7983      7985      7984      7983      7986      7985      7983      7986
      7986      7989      7990      7986      7989      7991      7986      7989      7992
      7987      7986      7988      7987      7986      7989      7988      7986      7989
      7989      7992      7993      7989      7992      7994      7989      7992      7995
      7990      7989      7991      7990      7989      7992      7991      7989      7992
      7992      7995      7996      7992      7995      7997      7992      7995      7998
      7993      7992      7994      7993      7992      7995      7994      7992      7995
      7996      7995      7997      7996      7995      7998      7997      7995      7998
      7999      8002      8003      7999      8002      8004      7999      8002      8005
      8000      7999      8001      8000      7999      8002      8001      7999      8002
      8002      8005      8006      8002      8005      8007      8002      8005      8008
      8003      8002      8004      8003      8002      8005      8004      8002      8005
      8005      8008      8009      8005      8008      8010      8005      8008      8011
      8006      8005      8007      8006      8005      8008      8007      8005      8008
      8008      8011      8012      8008      8011      8013      8008      8011      8014
      8009      8008      8010      8009      8008      8011      8010      8008      8011
      8011      8014      8015      8011      8014      8016      8011      8014      8017
      8012      8011      8013      8012      8011      8014      8013      8011      8014
      8014      8017      8018      8014      8017      8019      8014      8017      8020
      8015      8014      8016      8015      8014      8017      8016      8014      8017
      8017      8020      8021      8017      8020      8022      8017      8020      8023
      8018      8017      8019      8018      8017      8020      8019      8017      8020
      8020      8023      8024      8020      8023      8025      8020      8023      8026
      8021      8020      8022      8021      8020      8023      8022      8020      8023
      8023      8026      8027      8023      8026      8028      8023      8026      8029
      8024      8023      8025      8024      8023      8026      8025      8023      8026
      8026      8029      8030      8026      8029      8031      8026      8029      8032
      8027      8026      8028      8027      8026      8029      8028      8026      8029
      8029      8032      8033      8029      8032      8034      8029      8032      8035
      8030      8029      8031      8030      8029      8032      8031      8029      8032
      8032      8035      8036      8032      8035      8037      8032      8035      8038
      8033      8032      8034      8033      8032      8035      8034      8032      8035
      8035      8038      8039      8035      8038      8040      8035      8038      8041
      8036      8035      8037      8036      8035      8038      8037      8035      8038
      8038      8041      8042      8038      8041      8043      8038      8041      8044
      8039      8038      8040      8039      8038      8041      8040      8038      8041
      8041      8044      8045      8041      8044      8046      8041      8044      8047
      8042      8041      8043      8042      8041      8044      8043      8041      8044
      8045      8044      8046      8045      8044      8047      8046      8044      8047
      8048      8049      8050      8048      8049      8051      8048      8049      8052
      8048      8053      8054      8048      8053      8055      8048      8053      8056
      8048      8057      8058      8048      8057      8059      8048      8057      8060
      8048      8061      8062      8048      8061      8063      8048      8061      8064
      8049      8048      8053      8049      8048      8057      8049      8048      8061
      8050      8049      8051      8050      8049      8052      8051      8049      8052
      8053      8048      8057      8053      8048      8061      8054      8053      8055
      8054      8053      8056      8055      8053      8056      8057      8048      8061
      8058      8057      8059      8058      8057      8060      8059      8057      8060
      8061      8064      8065      8061      8064      8066      8061      8064      8071
      8062      8061      8063      8062      8061      8064      8063      8061      8064
      8064      8071      8067      8065      8064      8066      8065      8064      8071
      8066      8064      8071      8067      8070      8072      8068      8067      8069
      8068      8067      8070      8068      8067      8071      8069      8067      8070
      8069      8067      8071      8070      8067      8071      8070      8072      8073
      8070      8072      8074      8070      8072      8077      8072      8077      8075
      8072      8077      8078      8072      8077      8079      8073      8072      8074
      8073      8072      8077      8074      8072      8077      8075      8077      8078
      8075      8077      8079      8075      8127      8128      8075      8127      8129
      8076      8075      8077      8076      8075      8127      8077      8075      8127
      8077      8079      8080      8077      8079      8081      8077      8079      8083
      8078      8077      8079      8079      8081      8082      8079      8083      8084
      8079      8083      8085      8080      8079      8081      8080      8079      8083
      8081      8079      8083      8083      8085      8086      8083      8085      8087
      8084      8083      8085      8085      8087      8088      8085      8087      8089
      8085      8087      8090      8086      8085      8087      8087      8090      8091
      8087      8090      8092      8087      8090      8093      8088      8087      8089
      8088      8087      8090      8089      8087      8090      8090      8093      8094
      8090      8093      8095      8090      8093      8096      8091      8090      8092
      8091      8090      8093      8092      8090      8093      8093      8096      8097
      8093      8096      8098      8093      8096      8099      8094      8093      8095
      8094      8093      8096      8095      8093      8096      8096      8099      8100
      8096      8099      8101      8096      8099      8102      8097      8096      8098
      8097      8096      8099      8098      8096      8099      8099      8102      8103
      8099      8102      8104      8099      8102      8105      8100      8099      8101
      8100      8099      8102      8101      8099      8102      8102      8105      8106
      8102      8105      8107      8102      8105      8108      8103      8102      8104
      8103      8102      8105      8104      8102      8105      8105      8108      8109
      8105      8108      8110      8105      8108      8111      8106      8105      8107
      8106      8105      8108      8107      8105      8108      8108      8111      8112
      8108      8111      8113      8108      8111      8114      8109      8108      8110
      8109      8108      8111      8110      8108      8111      8111      8114      8115
      8111      8114      8116      8111      8114      8117      8112      8111      8113
      8112      8111      8114      8113      8111      8114      8114      8117      8118
      8114      8117      8119      8114      8117      8120      8115      8114      8116
      8115      8114      8117      8116      8114      8117      8117      8120      8121
      8117      8120      8122      8117      8120      8123      8118      8117      8119
      8118      8117      8120      8119      8117      8120      8120      8123      8124
      8120      8123      8125      8120      8123      8126      8121      8120      8122
      8121      8120      8123      8122      8120      8123      8124      8123      8125
      8124      8123      8126      8125      8123      8126      8127      8129      8130
      8127      8129      8131      8127      8129      8132      8128      8127      8129
      8129      8132      8133      8129      8132      8134      8129      8132      8135
      8130      8129      8131      8130      8129      8132      8131      8129      8132
      8132      8135      8136      8132      8135      8137      8132      8135      8138
      8133      8132      8134      8133      8132      8135      8134      8132      8135
      8135      8138      8139      8135      8138      8140      8135      8138      8141
      8136      8135      8137      8136      8135      8138      8137      8135      8138
      8138      8141      8142      8138      8141      8143      8138      8141      8144
      8139      8138      8140      8139      8138      8141      8140      8138      8141
      8141      8144      8145      8141      8144      8146      8141      8144      8147
      8142      8141      8143      8142      8141      8144      8143      8141      8144
      8144      8147      8148      8144      8147      8149      8144      8147      8150
      8145      8144      8146      8145      8144      8147      8146      8144      8147
      8147      8150      8151      8147      8150      8152      8148      8147      8149
      8148      8147      8150      8149      8147      8150      8150      8152      8153
      8150      8152      8154      8151      8150      8152      8152      8154      8155
      8152      8154      8156      8152      8154      8157      8153      8152      8154
      8154      8157      8158      8154      8157      8159      8154      8157      8160
      8155      8154      8156      8155      8154      8157      8156      8154      8157
      8157      8160      8161      8157      8160      8162      8157      8160      8163
      8158      8157      8159      8158      8157      8160      8159      8157      8160
      8160      8163      8164      8160      8163      8165      8160      8163      8166
      8161      8160      8162      8161      8160      8163      8162      8160      8163
      8163      8166      8167      8163      8166      8168      8163      8166      8169
      8164      8163      8165      8164      8163      8166      8165      8163      8166
      8166      8169      8170      8166      8169      8171      8166      8169      8172
      8167      8166      8168      8167      8166      8169      8168      8166      8169
      8169      8172      8173      8169      8172      8174      8169      8172      8175
      8170      8169      8171      8170      8169      8172      8171      8169      8172
      8172      8175      8176      8172      8175      8177      8172      8175      8178
      8173      8172      8174      8173      8172      8175      8174      8172      8175
      8176      8175      8177      8176      8175      8178      8177      8175      8178
      8179      8180      8181      8179      8180      8182      8179      8180      8183
      8179      8184      8185      8179      8184      8186      8179      8184      8187
      8179      8188      8189      8179      8188      8190      8179      8188      8191
      8179      8192      8193      8179      8192      8194      8179      8192      8195
      8180      8179      8184      8180      8179      8188      8180      8179      8192
      8181      8180      8182      8181      8180      8183      8182      8180      8183
      8184      8179      8188      8184      8179      8192      8185      8184      8186
      8185      8184      8187      8186      8184      8187      8188      8179      8192
      8189      8188      8190      8189      8188      8191      8190      8188      8191
      8192      8195      8196      8192      8195      8197      8192      8195      8202
      8193      8192      8194      8193      8192      8195      8194      8192      8195
      8195      8202      8198      8196      8195      8197      8196      8195      8202
      8197      8195      8202      8198      8201      8203      8199      8198      8200
      8199      8198      8201      8199      8198      8202      8200      8198      8201
      8200      8198      8202      8201      8198      8202      8201      8203      8204
      8201      8203      8205      8201      8203      8208      8203      8208      8206
      8203      8208      8209      8203      8208      8210      8204      8203      8205
      8204      8203      8208      8205      8203      8208      8206      8208      8209
      8206      8208      8210      8206      8258      8259      8206      8258      8260
      8207      8206      8208      8207      8206      8258      8208      8206      8258
      8208      8210      8211      8208      8210      8212      8208      8210      8214
      8209      8208      8210      8210      8212      8213      8210      8214      8215
      8210      8214      8216      8211      8210      8212      8211      8210      8214
      8212      8210      8214      8214      8216      8217      8214      8216      8218
      8215      8214      8216      8216      8218      8219      8216      8218      8220
      8216      8218      8221      8217      8216      8218      8218      8221      8222
      8218      8221      8223      8218      8221      8224      8219      8218      8220
      8219      8218      8221      8220      8218      8221      8221      8224      8225
      8221      8224      8226      8221      8224      8227      8222      8221      8223
      8222      8221      8224      8223      8221      8224      8224      8227      8228
      8224      8227      8229      8224      8227      8230      8225      8224      8226
      8225      8224      8227      8226      8224      8227      8227      8230      8231
      8227      8230      8232      8227      8230      8233      8228      8227      8229
      8228      8227      8230      8229      8227      8230      8230      8233      8234
      8230      8233      8235      8230      8233      8236      8231      8230      8232
      8231      8230      8233      8232      8230      8233      8233      8236      8237
      8233      8236      8238      8233      8236      8239      8234      8233      8235
      8234      8233      8236      8235      8233      8236      8236      8239      8240
      8236      8239      8241      8236      8239      8242      8237      8236      8238
      8237      8236      8239      8238      8236      8239      8239      8242      8243
      8239      8242      8244      8239      8242      8245      8240      8239      8241
      8240      8239      8242      8241      8239      8242      8242      8245      8246
      8242      8245      8247      8242      8245      8248      8243      8242      8244
      8243      8242      8245      8244      8242      8245      8245      8248      8249
      8245      8248      8250      8245      8248      8251      8246      8245      8247
      8246      8245      8248      8247      8245      8248      8248      8251      8252
      8248      8251      8253      8248      8251      8254      8249      8248      8250
      8249      8248      8251      8250      8248      8251      8251      8254      8255
      8251      8254      8256      8251      8254      8257      8252      8251      8253
      8252      8251      8254      8253      8251      8254      8255      8254      8256
      8255      8254      8257      8256      8254      8257      8258      8260      8261
      8258      8260      8262      8258      8260      8263      8259      8258      8260
      8260      8263      8264      8260      8263      8265      8260      8263      8266
      8261      8260      8262      8261      8260      8263      8262      8260      8263
      8263      8266      8267      8263      8266      8268      8263      8266      8269
      8264      8263      8265      8264      8263      8266      8265      8263      8266
      8266      8269      8270      8266      8269      8271      8266      8269      8272
      8267      8266      8268      8267      8266      8269      8268      8266      8269
      8269      8272      8273      8269      8272      8274      8269      8272      8275
      8270      8269      8271      8270      8269      8272      8271      8269      8272
      8272      8275      8276      8272      8275      8277      8272      8275      8278
      8273      8272      8274      8273      8272      8275      8274      8272      8275
      8275      8278      8279      8275      8278      8280      8275      8278      8281
      8276      8275      8277      8276      8275      8278      8277      8275      8278
      8278      8281      8282      8278      8281      8283      8279      8278      8280
      8279      8278      8281      8280      8278      8281      8281      8283      8284
      8281      8283      8285      8282      8281      8283      8283      8285      8286
      8283      8285      8287      8283      8285      8288      8284      8283      8285
      8285      8288      8289      8285      8288      8290      8285      8288      8291
      8286      8285      8287      8286      8285      8288      8287      8285      8288
      8288      8291      8292      8288      8291      8293      8288      8291      8294
      8289      8288      8290      8289      8288      8291      8290      8288      8291
      8291      8294      8295      8291      8294      8296      8291      8294      8297
      8292      8291      8293      8292      8291      8294      8293      8291      8294
      8294      8297      8298      8294      8297      8299      8294      8297      8300
      8295      8294      8296      8295      8294      8297      8296      8294      8297
      8297      8300      8301      8297      8300      8302      8297      8300      8303
      8298      8297      8299      8298      8297      8300      8299      8297      8300
      8300      8303      8304      8300      8303      8305      8300      8303      8306
      8301      8300      8302      8301      8300      8303      8302      8300      8303
      8303      8306      8307      8303      8306      8308      8303      8306      8309
      8304      8303      8305      8304      8303      8306      8305      8303      8306
      8307      8306      8308      8307      8306      8309      8308      8306      8309
      8310      8311      8312      8310      8311      8313      8310      8311      8314
      8310      8315      8316      8310      8315      8317      8310      8315      8318
      8310      8319      8320      8310      8319      8321      8310      8319      8322
      8310      8323      8324      8310      8323      8325      8310      8323      8326
      8311      8310      8315      8311      8310      8319      8311      8310      8323
      8312      8311      8313      8312      8311      8314      8313      8311      8314
      8315      8310      8319      8315      8310      8323      8316      8315      8317
      8316      8315      8318      8317      8315      8318      8319      8310      8323
      8320      8319      8321      8320      8319      8322      8321      8319      8322
      8323      8326      8327      8323      8326      8328      8323      8326      8333
      8324      8323      8325      8324      8323      8326      8325      8323      8326
      8326      8333      8329      8327      8326      8328      8327      8326      8333
      8328      8326      8333      8329      8332      8334      8330      8329      8331
      8330      8329      8332      8330      8329      8333      8331      8329      8332
      8331      8329      8333      8332      8329      8333      8332      8334      8335
      8332      8334      8336      8332      8334      8339      8334      8339      8337
      8334      8339      8340      8334      8339      8341      8335      8334      8336
      8335      8334      8339      8336      8334      8339      8337      8339      8340
      8337      8339      8341      8337      8389      8390      8337      8389      8391
      8338      8337      8339      8338      8337      8389      8339      8337      8389
      8339      8341      8342      8339      8341      8343      8339      8341      8345
      8340      8339      8341      8341      8343      8344      8341      8345      8346
      8341      8345      8347      8342      8341      8343      8342      8341      8345
      8343      8341      8345      8345      8347      8348      8345      8347      8349
      8346      8345      8347      8347      8349      8350      8347      8349      8351
      8347      8349      8352      8348      8347      8349      8349      8352      8353
      8349      8352      8354      8349      8352      8355      8350      8349      8351
      8350      8349      8352      8351      8349      8352      8352      8355      8356
      8352      8355      8357      8352      8355      8358      8353      8352      8354
      8353      8352      8355      8354      8352      8355      8355      8358      8359
      8355      8358      8360      8355      8358      8361      8356      8355      8357
      8356      8355      8358      8357      8355      8358      8358      8361      8362
      8358      8361      8363      8358      8361      8364      8359      8358      8360
      8359      8358      8361      8360      8358      8361      8361      8364      8365
      8361      8364      8366      8361      8364      8367      8362      8361      8363
      8362      8361      8364      8363      8361      8364      8364      8367      8368
      8364      8367      8369      8364      8367      8370      8365      8364      8366
      8365      8364      8367      8366      8364      8367      8367      8370      8371
      8367      8370      8372      8367      8370      8373      8368      8367      8369
      8368      8367      8370      8369      8367      8370      8370      8373      8374
      8370      8373      8375      8370      8373      8376      8371      8370      8372
      8371      8370      8373      8372      8370      8373      8373      8376      8377
      8373      8376      8378      8373      8376      8379      8374      8373      8375
      8374      8373      8376      8375      8373      8376      8376      8379      8380
      8376      8379      8381      8376      8379      8382      8377      8376      8378
      8377      8376      8379      8378      8376      8379      8379      8382      8383
      8379      8382      8384      8379      8382      8385      8380      8379      8381
      8380      8379      8382      8381      8379      8382      8382      8385      8386
      8382      8385      8387      8382      8385      8388      8383      8382      8384
      8383      8382      8385      8384      8382      8385      8386      8385      8387
      8386      8385      8388      8387      8385      8388      8389      8391      8392
      8389      8391      8393      8389      8391      8394      8390      8389      8391
      8391      8394      8395      8391      8394      8396      8391      8394      8397
      8392      8391      8393      8392      8391      8394      8393      8391      8394
      8394      8397      8398      8394      8397      8399      8394      8397      8400
      8395      8394      8396      8395      8394      8397      8396      8394      8397
      8397      8400      8401      8397      8400      8402      8397      8400      8403
      8398      8397      8399      8398      8397      8400      8399      8397      8400
      8400      8403      8404      8400      8403      8405      8400      8403      8406
      8401      8400      8402      8401      8400      8403      8402      8400      8403
      8403      8406      8407      8403      8406      8408      8403      8406      8409
      8404      8403      8405      8404      8403      8406      8405      8403      8406
      8406      8409      8410      8406      8409      8411      8406      8409      8412
      8407      8406      8408      8407      8406      8409      8408      8406      8409
      8409      8412      8413      8409      8412      8414      8410      8409      8411
      8410      8409      8412      8411      8409      8412      8412      8414      8415
      8412      8414      8416      8413      8412      8414      8414      8416      8417
      8414      8416      8418      8414      8416      8419      8415      8414      8416
      8416      8419      8420      8416      8419      8421      8416      8419      8422
      8417      8416      8418      8417      8416      8419      8418      8416      8419
      8419      8422      8423      8419      8422      8424      8419      8422      8425
      8420      8419      8421      8420      8419      8422      8421      8419      8422
      8422      8425      8426      8422      8425      8427      8422      8425      8428
      8423      8422      8424      8423      8422      8425      8424      8422      8425
      8425      8428      8429      8425      8428      8430      8425      8428      8431
      8426      8425      8427      8426      8425      8428      8427      8425      8428
      8428      8431      8432      8428      8431      8433      8428      8431      8434
      8429      8428      8430      8429      8428      8431      8430      8428      8431
      8431      8434      8435      8431      8434      8436      8431      8434      8437
      8432      8431      8433      8432      8431      8434      8433      8431      8434
      8434      8437      8438      8434      8437      8439      8434      8437      8440
      8435      8434      8436      8435      8434      8437      8436      8434      8437
      8438      8437      8439      8438      8437      8440      8439      8437      8440
      8441      8442      8443      8441      8442      8444      8441      8442      8457
      8441      8445      8446      8441      8445      8447      8441      8445      8448
      8441      8449      8450      8441      8449      8451      8441      8449      8452
      8441      8453      8454      8441      8453      8455      8441      8453      8456
      8442      8441      8445      8442      8441      8449      8442      8441      8453
      8442      8457      8458      8442      8457      8459      8442      8457      8463
      8443      8442      8444      8443      8442      8457      8444      8442      8457
      8445      8441      8449      8445      8441      8453      8446      8445      8447
      8446      8445      8448      8447      8445      8448      8449      8441      8453
      8450      8449      8451      8450      8449      8452      8451      8449      8452
      8454      8453      8455      8454      8453      8456      8455      8453      8456
      8457      8463      8460      8458      8457      8459      8458      8457      8463
      8459      8457      8463      8460      8464      8465      8461      8460      8462
      8461      8460      8463      8461      8460      8464      8462      8460      8463
      8462      8460      8464      8463      8460      8464      8464      8465      8466
      8464      8465      8467      8464      8465      8468      8465      8468      8469
      8465      8468      8470      8465      8468      8476      8466      8465      8467
      8466      8465      8468      8467      8465      8468      8468      8470      8471
      8468      8476      8477      8468      8476      8478      8468      8476      8479
      8469      8468      8470      8469      8468      8476      8470      8468      8476
      8470      8471      8472      8470      8471      8473      8471      8473      8474
      8471      8473      8475      8471      8473      8485      8472      8471      8473
      8473      8485      8486      8473      8485      8487      8473      8485      8488
      8474      8473      8475      8474      8473      8485      8475      8473      8485
      8476      8479      8480      8477      8476      8478      8477      8476      8479
      8478      8476      8479      8479      8480      8481      8479      8480      8482
      8480      8482      8483      8480      8482      8484      8480      8482      8532
      8481      8480      8482      8482      8532      8533      8482      8532      8534
      8482      8532      8535      8483      8482      8484      8483      8482      8532
      8484      8482      8532      8485      8488      8489      8485      8488      8490
      8485      8488      8491      8486      8485      8487      8486      8485      8488
      8487      8485      8488      8488      8491      8492      8488      8491      8493
      8489      8488      8490      8489      8488      8491      8490      8488      8491
      8491      8493      8494      8491      8493      8495      8492      8491      8493
      8493      8495      8496      8493      8495      8497      8493      8495      8498
      8494      8493      8495      8495      8498      8499      8495      8498      8500
      8496      8495      8497      8496      8495      8498      8497      8495      8498
      8498      8500      8501      8498      8500      8502      8499      8498      8500
      8500      8502      8503      8500      8502      8504      8500      8502      8505
      8501      8500      8502      8502      8505      8506      8502      8505      8507
      8503      8502      8504      8503      8502      8505      8504      8502      8505
      8505      8507      8508      8505      8507      8509      8506      8505      8507
      8507      8509      8510      8507      8509      8511      8507      8509      8512
      8508      8507      8509      8509      8512      8513      8509      8512      8514
      8510      8509      8511      8510      8509      8512      8511      8509      8512
      8512      8514      8515      8512      8514      8516      8513      8512      8514
      8514      8516      8517      8514      8516      8518      8514      8516      8519
      8515      8514      8516      8516      8519      8520      8516      8519      8521
      8516      8519      8522      8517      8516      8518      8517      8516      8519
      8518      8516      8519      8519      8522      8523      8519      8522      8524
      8519      8522      8525      8520      8519      8521      8520      8519      8522
      8521      8519      8522      8522      8525      8526      8522      8525      8527
      8522      8525      8528      8523      8522      8524      8523      8522      8525
      8524      8522      8525      8525      8528      8529      8525      8528      8530
      8525      8528      8531      8526      8525      8527      8526      8525      8528
      8527      8525      8528      8529      8528      8530      8529      8528      8531
      8530      8528      8531      8532      8535      8536      8532      8535      8537
      8532      8535      8538      8533      8532      8534      8533      8532      8535
      8534      8532      8535      8535      8538      8539      8535      8538      8540
      8535      8538      8541      8536      8535      8537      8536      8535      8538
      8537      8535      8538      8538      8541      8542      8538      8541      8543
      8538      8541      8544      8539      8538      8540      8539      8538      8541
      8540      8538      8541      8541      8544      8545      8541      8544      8546
      8541      8544      8547      8542      8541      8543      8542      8541      8544
      8543      8541      8544      8544      8547      8548      8544      8547      8549
      8544      8547      8550      8545      8544      8546      8545      8544      8547
      8546      8544      8547      8547      8550      8551      8547      8550      8552
      8547      8550      8553      8548      8547      8549      8548      8547      8550
      8549      8547      8550      8550      8553      8554      8550      8553      8555
      8550      8553      8556      8551      8550      8552      8551      8550      8553
      8552      8550      8553      8553      8556      8557      8553      8556      8558
      8553      8556      8559      8554      8553      8555      8554      8553      8556
      8555      8553      8556      8556      8559      8560      8556      8559      8561
      8556      8559      8562      8557      8556      8558      8557      8556      8559
      8558      8556      8559      8559      8562      8563      8559      8562      8564
      8559      8562      8565      8560      8559      8561      8560      8559      8562
      8561      8559      8562      8562      8565      8566      8562      8565      8567
      8562      8565      8568      8563      8562      8564      8563      8562      8565
      8564      8562      8565      8565      8568      8569      8565      8568      8570
      8565      8568      8571      8566      8565      8567      8566      8565      8568
      8567      8565      8568      8568      8571      8572      8568      8571      8573
      8568      8571      8574      8569      8568      8570      8569      8568      8571
      8570      8568      8571      8571      8574      8575      8571      8574      8576
      8571      8574      8577      8572      8571      8573      8572      8571      8574
      8573      8571      8574      8574      8577      8578      8574      8577      8579
      8574      8577      8580      8575      8574      8576      8575      8574      8577
      8576      8574      8577      8578      8577      8579      8578      8577      8580
      8579      8577      8580      8581      8585      8586      8581      8585      8587
      8581      8585      8590      8582      8581      8583      8582      8581      8584
      8582      8581      8585      8583      8581      8584      8583      8581      8585
      8584      8581      8585      8585      8587      8588      8585      8587      8589
      8585      8590      8591      8585      8590      8592      8585      8590      8596
      8586      8585      8587      8586      8585      8590      8587      8585      8590
      8588      8587      8589      8590      8596      8593      8591      8590      8592
      8591      8590      8596      8592      8590      8596      8593      8597      8598
      8594      8593      8595      8594      8593      8596      8594      8593      8597
      8595      8593      8596      8595      8593      8597      8596      8593      8597
      8597      8598      8599      8597      8598      8600      8597      8598      8601
      8598      8601      8602      8598      8601      8603      8598      8601      8609
      8599      8598      8600      8599      8598      8601      8600      8598      8601
      8601      8603      8604      8601      8609      8610      8601      8609      8611
      8601      8609      8612      8602      8601      8603      8602      8601      8609
      8603      8601      8609      8603      8604      8605      8603      8604      8606
      8604      8606      8607      8604      8606      8608      8604      8606      8618
      8605      8604      8606      8606      8618      8619      8606      8618      8620
      8606      8618      8621      8607      8606      8608      8607      8606      8618
      8608      8606      8618      8609      8612      8613      8610      8609      8611
      8610      8609      8612      8611      8609      8612      8612      8613      8614
      8612      8613      8615      8613      8615      8616      8613      8615      8617
      8613      8615      8665      8614      8613      8615      8615      8665      8666
      8615      8665      8667      8615      8665      8668      8616      8615      8617
      8616      8615      8665      8617      8615      8665      8618      8621      8622
      8618      8621      8623      8618      8621      8624      8619      8618      8620
      8619      8618      8621      8620      8618      8621      8621      8624      8625
      8621      8624      8626      8622      8621      8623      8622      8621      8624
      8623      8621      8624      8624      8626      8627      8624      8626      8628
      8625      8624      8626      8626      8628      8629      8626      8628      8630
      8626      8628      8631      8627      8626      8628      8628      8631      8632
      8628      8631      8633      8629      8628      8630      8629      8628      8631
      8630      8628      8631      8631      8633      8634      8631      8633      8635
      8632      8631      8633      8633      8635      8636      8633      8635      8637
      8633      8635      8638      8634      8633      8635      8635      8638      8639
      8635      8638      8640      8636      8635      8637      8636      8635      8638
      8637      8635      8638      8638      8640      8641      8638      8640      8642
      8639      8638      8640      8640      8642      8643      8640      8642      8644
      8640      8642      8645      8641      8640      8642      8642      8645      8646
      8642      8645      8647      8643      8642      8644      8643      8642      8645
      8644      8642      8645      8645      8647      8648      8645      8647      8649
      8646      8645      8647      8647      8649      8650      8647      8649      8651
      8647      8649      8652      8648      8647      8649      8649      8652      8653
      8649      8652      8654      8649      8652      8655      8650      8649      8651
      8650      8649      8652      8651      8649      8652      8652      8655      8656
      8652      8655      8657      8652      8655      8658      8653      8652      8654
      8653      8652      8655      8654      8652      8655      8655      8658      8659
      8655      8658      8660      8655      8658      8661      8656      8655      8657
      8656      8655      8658      8657      8655      8658      8658      8661      8662
      8658      8661      8663      8658      8661      8664      8659      8658      8660
      8659      8658      8661      8660      8658      8661      8662      8661      8663
      8662      8661      8664      8663      8661      8664      8665      8668      8669
      8665      8668      8670      8665      8668      8671      8666      8665      8667
      8666      8665      8668      8667      8665      8668      8668      8671      8672
      8668      8671      8673      8668      8671      8674      8669      8668      8670
      8669      8668      8671      8670      8668      8671      8671      8674      8675
      8671      8674      8676      8671      8674      8677      8672      8671      8673
      8672      8671      8674      8673      8671      8674      8674      8677      8678
      8674      8677      8679      8674      8677      8680      8675      8674      8676
      8675      8674      8677      8676      8674      8677      8677      8680      8681
      8677      8680      8682      8677      8680      8683      8678      8677      8679
      8678      8677      8680      8679      8677      8680      8680      8683      8684
      8680      8683      8685      8680      8683      8686      8681      8680      8682
      8681      8680      8683      8682      8680      8683      8683      8686      8687
      8683      8686      8688      8683      8686      8689      8684      8683      8685
      8684      8683      8686      8685      8683      8686      8686      8689      8690
      8686      8689      8691      8686      8689      8692      8687      8686      8688
      8687      8686      8689      8688      8686      8689      8689      8692      8693
      8689      8692      8694      8689      8692      8695      8690      8689      8691
      8690      8689      8692      8691      8689      8692      8692      8695      8696
      8692      8695      8697      8692      8695      8698      8693      8692      8694
      8693      8692      8695      8694      8692      8695      8695      8698      8699
      8695      8698      8700      8695      8698      8701      8696      8695      8697
      8696      8695      8698      8697      8695      8698      8698      8701      8702
      8698      8701      8703      8698      8701      8704      8699      8698      8700
      8699      8698      8701      8700      8698      8701      8701      8704      8705
      8701      8704      8706      8701      8704      8707      8702      8701      8703
      8702      8701      8704      8703      8701      8704      8704      8707      8708
      8704      8707      8709      8704      8707      8710      8705      8704      8706
      8705      8704      8707      8706      8704      8707      8707      8710      8711
      8707      8710      8712      8707      8710      8713      8708      8707      8709
      8708      8707      8710      8709      8707      8710      8711      8710      8712
      8711      8710      8713      8712      8710      8713      8714      8715      8716
      8714      8715      8717      8714      8715      8718      8714      8719      8720
      8714      8719      8721      8714      8719      8722      8714      8723      8724
      8714      8723      8725      8714      8723      8726      8714      8727      8728
      8714      8727      8729      8714      8727      8730      8715      8714      8719
      8715      8714      8723      8715      8714      8727      8716      8715      8717
      8716      8715      8718      8717      8715      8718      8719      8714      8723
      8719      8714      8727      8720      8719      8721      8720      8719      8722
      8721      8719      8722      8723      8714      8727      8724      8723      8725
      8724      8723      8726      8725      8723      8726      8727      8730      8731
      8727      8730      8732      8727      8730      8737      8728      8727      8729
      8728      8727      8730      8729      8727      8730      8730      8737      8733
      8731      8730      8732      8731      8730      8737      8732      8730      8737
      8733      8736      8738      8734      8733      8735      8734      8733      8736
      8734      8733      8737      8735      8733      8736      8735      8733      8737
      8736      8733      8737      8736      8738      8739      8736      8738      8740
      8736      8738      8743      8738      8743      8741      8738      8743      8744
      8738      8743      8745      8739      8738      8740      8739      8738      8743
      8740      8738      8743      8741      8743      8744      8741      8743      8745
      8741      8793      8794      8741      8793      8795      8742      8741      8743
      8742      8741      8793      8743      8741      8793      8743      8745      8746
      8743      8745      8747      8743      8745      8749      8744      8743      8745
      8745      8747      8748      8745      8749      8750      8745      8749      8751
      8746      8745      8747      8746      8745      8749      8747      8745      8749
      8749      8751      8752      8749      8751      8753      8750      8749      8751
      8751      8753      8754      8751      8753      8755      8751      8753      8756
      8752      8751      8753      8753      8756      8757      8753      8756      8758
      8753      8756      8759      8754      8753      8755      8754      8753      8756
      8755      8753      8756      8756      8759      8760      8756      8759      8761
      8756      8759      8762      8757      8756      8758      8757      8756      8759
      8758      8756      8759      8759      8762      8763      8759      8762      8764
      8759      8762      8765      8760      8759      8761      8760      8759      8762
      8761      8759      8762      8762      8765      8766      8762      8765      8767
      8762      8765      8768      8763      8762      8764      8763      8762      8765
      8764      8762      8765      8765      8768      8769      8765      8768      8770
      8765      8768      8771      8766      8765      8767      8766      8765      8768
      8767      8765      8768      8768      8771      8772      8768      8771      8773
      8768      8771      8774      8769      8768      8770      8769      8768      8771
      8770      8768      8771      8771      8774      8775      8771      8774      8776
      8771      8774      8777      8772      8771      8773      8772      8771      8774
      8773      8771      8774      8774      8777      8778      8774      8777      8779
      8774      8777      8780      8775      8774      8776      8775      8774      8777
      8776      8774      8777      8777      8780      8781      8777      8780      8782
      8777      8780      8783      8778      8777      8779      8778      8777      8780
      8779      8777      8780      8780      8783      8784      8780      8783      8785
      8780      8783      8786      8781      8780      8782      8781      8780      8783
      8782      8780      8783      8783      8786      8787      8783      8786      8788
      8783      8786      8789      8784      8783      8785      8784      8783      8786
      8785      8783      8786      8786      8789      8790      8786      8789      8791
      8786      8789      8792      8787      8786      8788      8787      8786      8789
      8788      8786      8789      8790      8789      8791      8790      8789      8792
      8791      8789      8792      8793      8795      8796      8793      8795      8797
      8793      8795      8798      8794      8793      8795      8795      8798      8799
      8795      8798      8800      8795      8798      8801      8796      8795      8797
      8796      8795      8798      8797      8795      8798      8798      8801      8802
      8798      8801      8803      8798      8801      8804      8799      8798      8800
      8799      8798      8801      8800      8798      8801      8801      8804      8805
      8801      8804      8806      8801      8804      8807      8802      8801      8803
      8802      8801      8804      8803      8801      8804      8804      8807      8808
      8804      8807      8809      8804      8807      8810      8805      8804      8806
      8805      8804      8807      8806      8804      8807      8807      8810      8811
      8807      8810      8812      8807      8810      8813      8808      8807      8809
      8808      8807      8810      8809      8807      8810      8810      8813      8814
      8810      8813      8815      8810      8813      8816      8811      8810      8812
      8811      8810      8813      8812      8810      8813      8813      8816      8817
      8813      8816      8818      8814      8813      8815      8814      8813      8816
      8815      8813      8816      8816      8818      8819      8816      8818      8820
      8817      8816      8818      8818      8820      8821      8818      8820      8822
      8818      8820      8823      8819      8818      8820      8820      8823      8824
      8820      8823      8825      8820      8823      8826      8821      8820      8822
      8821      8820      8823      8822      8820      8823      8823      8826      8827
      8823      8826      8828      8823      8826      8829      8824      8823      8825
      8824      8823      8826      8825      8823      8826      8826      8829      8830
      8826      8829      8831      8826      8829      8832      8827      8826      8828
      8827      8826      8829      8828      8826      8829      8829      8832      8833
      8829      8832      8834      8829      8832      8835      8830      8829      8831
      8830      8829      8832      8831      8829      8832      8832      8835      8836
      8832      8835      8837      8832      8835      8838      8833      8832      8834
      8833      8832      8835      8834      8832      8835      8835      8838      8839
      8835      8838      8840      8835      8838      8841      8836      8835      8837
      8836      8835      8838      8837      8835      8838      8838      8841      8842
      8838      8841      8843      8838      8841      8844      8839      8838      8840
      8839      8838      8841      8840      8838      8841      8842      8841      8843
      8842      8841      8844      8843      8841      8844      8845      8849      8850
      8845      8849      8851      8845      8849      8852      8846      8845      8847
      8846      8845      8848      8846      8845      8849      8847      8845      8848
      8847      8845      8849      8848      8845      8849      8849      8852      8853
      8849      8852      8854      8849      8852      8858      8850      8849      8851
      8850      8849      8852      8851      8849      8852      8852      8858      8855
      8853      8852      8854      8853      8852      8858      8854      8852      8858
      8855      8859      8860      8856      8855      8857      8856      8855      8858
      8856      8855      8859      8857      8855      8858      8857      8855      8859
      8858      8855      8859      8859      8860      8861      8859      8860      8862
      8859      8860      8863      8860      8863      8864      8860      8863      8865
      8860      8863      8871      8861      8860      8862      8861      8860      8863
      8862      8860      8863      8863      8865      8866      8863      8871      8872
      8863      8871      8873      8863      8871      8874      8864      8863      8865
      8864      8863      8871      8865      8863      8871      8865      8866      8867
      8865      8866      8868      8866      8868      8869      8866      8868      8870
      8866      8868      8880      8867      8866      8868      8868      8880      8881
      8868      8880      8882      8868      8880      8883      8869      8868      8870
      8869      8868      8880      8870      8868      8880      8871      8874      8875
      8872      8871      8873      8872      8871      8874      8873      8871      8874
      8874      8875      8876      8874      8875      8877      8875      8877      8878
      8875      8877      8879      8875      8877      8927      8876      8875      8877
      8877      8927      8928      8877      8927      8929      8877      8927      8930
      8878      8877      8879      8878      8877      8927      8879      8877      8927
      8880      8883      8884      8880      8883      8885      8880      8883      8886
      8881      8880      8882      8881      8880      8883      8882      8880      8883
      8883      8886      8887      8883      8886      8888      8884      8883      8885
      8884      8883      8886      8885      8883      8886      8886      8888      8889
      8886      8888      8890      8887      8886      8888      8888      8890      8891
      8888      8890      8892      8888      8890      8893      8889      8888      8890
      8890      8893      8894      8890      8893      8895      8891      8890      8892
      8891      8890      8893      8892      8890      8893      8893      8895      8896
      8893      8895      8897      8894      8893      8895      8895      8897      8898
      8895      8897      8899      8895      8897      8900      8896      8895      8897
      8897      8900      8901      8897      8900      8902      8898      8897      8899
      8898      8897      8900      8899      8897      8900      8900      8902      8903
      8900      8902      8904      8901      8900      8902      8902      8904      8905
      8902      8904      8906      8902      8904      8907      8903      8902      8904
      8904      8907      8908      8904      8907      8909      8905      8904      8906
      8905      8904      8907      8906      8904      8907      8907      8909      8910
      8907      8909      8911      8908      8907      8909      8909      8911      8912
      8909      8911      8913      8909      8911      8914      8910      8909      8911
      8911      8914      8915      8911      8914      8916      8911      8914      8917
      8912      8911      8913      8912      8911      8914      8913      8911      8914
      8914      8917      8918      8914      8917      8919      8914      8917      8920
      8915      8914      8916      8915      8914      8917      8916      8914      8917
      8917      8920      8921      8917      8920      8922      8917      8920      8923
      8918      8917      8919      8918      8917      8920      8919      8917      8920
      8920      8923      8924      8920      8923      8925      8920      8923      8926
      8921      8920      8922      8921      8920      8923      8922      8920      8923
      8924      8923      8925      8924      8923      8926      8925      8923      8926
      8927      8930      8931      8927      8930      8932      8927      8930      8933
      8928      8927      8929      8928      8927      8930      8929      8927      8930
      8930      8933      8934      8930      8933      8935      8930      8933      8936
      8931      8930      8932      8931      8930      8933      8932      8930      8933
      8933      8936      8937      8933      8936      8938      8933      8936      8939
      8934      8933      8935      8934      8933      8936      8935      8933      8936
      8936      8939      8940      8936      8939      8941      8936      8939      8942
      8937      8936      8938      8937      8936      8939      8938      8936      8939
      8939      8942      8943      8939      8942      8944      8939      8942      8945
      8940      8939      8941      8940      8939      8942      8941      8939      8942
      8942      8945      8946      8942      8945      8947      8942      8945      8948
      8943      8942      8944      8943      8942      8945      8944      8942      8945
      8945      8948      8949      8945      8948      8950      8945      8948      8951
      8946      8945      8947      8946      8945      8948      8947      8945      8948
      8948      8951      8952      8948      8951      8953      8948      8951      8954
      8949      8948      8950      8949      8948      8951      8950      8948      8951
      8951      8954      8955      8951      8954      8956      8951      8954      8957
      8952      8951      8953      8952      8951      8954      8953      8951      8954
      8954      8957      8958      8954      8957      8959      8954      8957      8960
      8955      8954      8956      8955      8954      8957      8956      8954      8957
      8957      8960      8961      8957      8960      8962      8957      8960      8963
      8958      8957      8959      8958      8957      8960      8959      8957      8960
      8960      8963      8964      8960      8963      8965      8960      8963      8966
      8961      8960      8962      8961      8960      8963      8962      8960      8963
      8963      8966      8967      8963      8966      8968      8963      8966      8969
      8964      8963      8965      8964      8963      8966      8965      8963      8966
      8966      8969      8970      8966      8969      8971      8966      8969      8972
      8967      8966      8968      8967      8966      8969      8968      8966      8969
      8969      8972      8973      8969      8972      8974      8969      8972      8975
      8970      8969      8971      8970      8969      8972      8971      8969      8972
      8973      8972      8974      8973      8972      8975      8974      8972      8975
      8976      8978      8979      8976      8980      8981      8976      8980      8982
      8976      8980      8983      8976      9022      9019      8976      9022      9023
      8976      9022      9024      8977      8976      8978      8977      8976      8980
      8977      8976      9022      8978      8976      8980      8978      8976      9022
      8980      8976      9022      8980      8983      8984      8980      8983      9014
      8981      8980      8982      8981      8980      8983      8982      8980      8983
      8983      8984      8985      8983      8984      8986      8983      9014      9012
      8983      9014      9015      8983      9014      9019      8984      8983      9014
      8984      8986      8987      8984      8986      8988      8984      8986      8989
      8985      8984      8986      8986      8989      8990      8986      8989      8991
      8986      8989      9012      8987      8986      8988      8987      8986      8989
      8988      8986      8989      8989      8991      8992      8989      8991      8993
      8989      8991      9001      8989      9012      9009      8989      9012      9013
      8989      9012      9014      8990      8989      8991      8990      8989      9012
      8991      8989      9012      8991      8993      8994      8991      8993      8995
      8991      8993      8996      8991      9001      8999      8991      9001      9002
      8991      9001      9006      8992      8991      8993      8992      8991      9001
      8993      8991      9001      8993      8996      8997      8993      8996      8998
      8993      8996      8999      8994      8993      8995      8994      8993      8996
      8995      8993      8996      8996      8999      9000      8996      8999      9001
      8996      8999      9025      8997      8996      8998      8997      8996      8999
      8998      8996      8999      8999      9001      9002      8999      9001      9006
      8999      9025      9026      8999      9025      9027      8999      9025      9031
      9000      8999      9001      9000      8999      9025      9001      8999      9025
      9001      9002      9003      9001      9002      9004      9001      9002      9005
      9001      9006      9007      9001      9006      9008      9001      9006      9009
      9002      9001      9006      9003      9002      9004      9003      9002      9005
      9004      9002      9005      9006      9009      9010      9006      9009      9011
      9006      9009      9012      9007      9006      9008      9007      9006      9009
      9008      9006      9009      9009      9012      9013      9009      9012      9014
      9010      9009      9011      9010      9009      9012      9011      9009      9012
      9012      9014      9015      9012      9014      9019      9013      9012      9014
      9014      9015      9016      9014      9015      9017      9014      9015      9018
      9014      9019      9020      9014      9019      9021      9014      9019      9022
      9015      9014      9019      9016      9015      9017      9016      9015      9018
      9017      9015      9018      9019      9022      9023      9019      9022      9024
      9020      9019      9021      9020      9019      9022      9021      9019      9022
      9023      9022      9024      9025      9027      9028      9025      9027      9029
      9025      9027      9030      9025      9031      9032      9025      9031      9033
      9025      9031      9034      9026      9025      9027      9026      9025      9031
      9027      9025      9031      9028      9027      9029      9028      9027      9030
      9029      9027      9030      9031      9034      9035      9031      9034      9036
      9031      9034      9037      9032      9031      9033      9032      9031      9034
      9033      9031      9034      9034      9037      9038      9034      9037      9039
      9034      9037      9040      9035      9034      9036      9035      9034      9037
      9036      9034      9037      9037      9040      9041      9037      9040      9042
      9037      9040      9046      9038      9037      9039      9038      9037      9040
      9039      9037      9040      9040      9042      9043      9040      9042      9044
      9040      9042      9045      9040      9046      9047      9040      9046      9048
      9040      9046      9049      9041      9040      9042      9041      9040      9046
      9042      9040      9046      9043      9042      9044      9043      9042      9045
      9044      9042      9045      9047      9046      9048      9047      9046      9049
      9048      9046      9049      9050      9054      9055      9050      9054      9056
      9050      9054      9057      9051      9050      9052      9051      9050      9053
      9051      9050      9054      9052      9050      9053      9052      9050      9054
      9053      9050      9054      9054      9057      9058      9054      9057      9059
      9054      9057      9063      9055      9054      9056      9055      9054      9057
      9056      9054      9057      9057      9063      9060      9058      9057      9059
      9058      9057      9063      9059      9057      9063      9060      9064      9065
      9061      9060      9062      9061      9060      9063      9061      9060      9064
      9062      9060      9063      9062      9060      9064      9063      9060      9064
      9064      9065      9066      9064      9065      9067      9064      9065      9068
      9065      9068      9069      9065      9068      9070      9065      9068      9076
      9066      9065      9067      9066      9065      9068      9067      9065      9068
      9068      9070      9071      9068      9076      9077      9068      9076      9078
      9068      9076      9079      9069      9068      9070      9069      9068      9076
      9070      9068      9076      9070      9071      9072      9070      9071      9073
      9071      9073      9074      9071      9073      9075      9071      9073      9085
      9072      9071      9073      9073      9085      9086      9073      9085      9087
      9073      9085      9088      9074      9073      9075      9074      9073      9085
      9075      9073      9085      9076      9079      9080      9077      9076      9078
      9077      9076      9079      9078      9076      9079      9079      9080      9081
      9079      9080      9082      9080      9082      9083      9080      9082      9084
      9080      9082      9132      9081      9080      9082      9082      9132      9133
      9082      9132      9134      9082      9132      9135      9083      9082      9084
      9083      9082      9132      9084      9082      9132      9085      9088      9089
      9085      9088      9090      9085      9088      9091      9086      9085      9087
      9086      9085      9088      9087      9085      9088      9088      9091      9092
      9088      9091      9093      9089      9088      9090      9089      9088      9091
      9090      9088      9091      9091      9093      9094      9091      9093      9095
      9092      9091      9093      9093      9095      9096      9093      9095      9097
      9093      9095      9098      9094      9093      9095      9095      9098      9099
      9095      9098      9100      9096      9095      9097      9096      9095      9098
      9097      9095      9098      9098      9100      9101      9098      9100      9102
      9099      9098      9100      9100      9102      9103      9100      9102      9104
      9100      9102      9105      9101      9100      9102      9102      9105      9106
      9102      9105      9107      9103      9102      9104      9103      9102      9105
      9104      9102      9105      9105      9107      9108      9105      9107      9109
      9106      9105      9107      9107      9109      9110      9107      9109      9111
      9107      9109      9112      9108      9107      9109      9109      9112      9113
      9109      9112      9114      9110      9109      9111      9110      9109      9112
      9111      9109      9112      9112      9114      9115      9112      9114      9116
      9113      9112      9114      9114      9116      9117      9114      9116      9118
      9114      9116      9119      9115      9114      9116      9116      9119      9120
      9116      9119      9121      9116      9119      9122      9117      9116      9118
      9117      9116      9119      9118      9116      9119      9119      9122      9123
      9119      9122      9124      9119      9122      9125      9120      9119      9121
      9120      9119      9122      9121      9119      9122      9122      9125      9126
      9122      9125      9127      9122      9125      9128      9123      9122      9124
      9123      9122      9125      9124      9122      9125      9125      9128      9129
      9125      9128      9130      9125      9128      9131      9126      9125      9127
      9126      9125      9128      9127      9125      9128      9129      9128      9130
      9129      9128      9131      9130      9128      9131      9132      9135      9136
      9132      9135      9137      9132      9135      9138      9133      9132      9134
      9133      9132      9135      9134      9132      9135      9135      9138      9139
      9135      9138      9140      9135      9138      9141      9136      9135      9137
      9136      9135      9138      9137      9135      9138      9138      9141      9142
      9138      9141      9143      9138      9141      9144      9139      9138      9140
      9139      9138      9141      9140      9138      9141      9141      9144      9145
      9141      9144      9146      9141      9144      9147      9142      9141      9143
      9142      9141      9144      9143      9141      9144      9144      9147      9148
      9144      9147      9149      9144      9147      9150      9145      9144      9146
      9145      9144      9147      9146      9144      9147      9147      9150      9151
      9147      9150      9152      9147      9150      9153      9148      9147      9149
      9148      9147      9150      9149      9147      9150      9150      9153      9154
      9150      9153      9155      9150      9153      9156      9151      9150      9152
      9151      9150      9153      9152      9150      9153      9153      9156      9157
      9153      9156      9158      9153      9156      9159      9154      9153      9155
      9154      9153      9156      9155      9153      9156      9156      9159      9160
      9156      9159      9161      9156      9159      9162      9157      9156      9158
      9157      9156      9159      9158      9156      9159      9159      9162      9163
      9159      9162      9164      9159      9162      9165      9160      9159      9161
      9160      9159      9162      9161      9159      9162      9162      9165      9166
      9162      9165      9167      9162      9165      9168      9163      9162      9164
      9163      9162      9165      9164      9162      9165      9165      9168      9169
      9165      9168      9170      9165      9168      9171      9166      9165      9167
      9166      9165      9168      9167      9165      9168      9168      9171      9172
      9168      9171      9173      9168      9171      9174      9169      9168      9170
      9169      9168      9171      9170      9168      9171      9171      9174      9175
      9171      9174      9176      9171      9174      9177      9172      9171      9173
      9172      9171      9174      9173      9171      9174      9174      9177      9178
      9174      9177      9179      9174      9177      9180      9175      9174      9176
      9175      9174      9177      9176      9174      9177      9178      9177      9179
      9178      9177      9180      9179      9177      9180      9181      9182      9183
      9181      9182      9184      9181      9182      9197      9181      9185      9186
      9181      9185      9187      9181      9185      9188      9181      9189      9190
      9181      9189      9191      9181      9189      9192      9181      9193      9194
      9181      9193      9195      9181      9193      9196      9182      9181      9185
      9182      9181      9189      9182      9181      9193      9182      9197      9198
      9182      9197      9199      9182      9197      9203      9183      9182      9184
      9183      9182      9197      9184      9182      9197      9185      9181      9189
      9185      9181      9193      9186      9185      9187      9186      9185      9188
      9187      9185      9188      9189      9181      9193      9190      9189      9191
      9190      9189      9192      9191      9189      9192      9194      9193      9195
      9194      9193      9196      9195      9193      9196      9197      9203      9200
      9198      9197      9199      9198      9197      9203      9199      9197      9203
      9200      9204      9205      9201      9200      9202      9201      9200      9203
      9201      9200      9204      9202      9200      9203      9202      9200      9204
      9203      9200      9204      9204      9205      9206      9204      9205      9207
      9204      9205      9208      9205      9208      9209      9205      9208      9210
      9205      9208      9216      9206      9205      9207      9206      9205      9208
      9207      9205      9208      9208      9210      9211      9208      9216      9217
      9208      9216      9218      9208      9216      9219      9209      9208      9210
      9209      9208      9216      9210      9208      9216      9210      9211      9212
      9210      9211      9213      9211      9213      9214      9211      9213      9215
      9211      9213      9225      9212      9211      9213      9213      9225      9226
      9213      9225      9227      9213      9225      9228      9214      9213      9215
      9214      9213      9225      9215      9213      9225      9216      9219      9220
      9217      9216      9218      9217      9216      9219      9218      9216      9219
      9219      9220      9221      9219      9220      9222      9220      9222      9223
      9220      9222      9224      9220      9222      9272      9221      9220      9222
      9222      9272      9273      9222      9272      9274      9222      9272      9275
      9223      9222      9224      9223      9222      9272      9224      9222      9272
      9225      9228      9229      9225      9228      9230      9225      9228      9231
      9226      9225      9227      9226      9225      9228      9227      9225      9228
      9228      9231      9232      9228      9231      9233      9229      9228      9230
      9229      9228      9231      9230      9228      9231      9231      9233      9234
      9231      9233      9235      9232      9231      9233      9233      9235      9236
      9233      9235      9237      9233      9235      9238      9234      9233      9235
      9235      9238      9239      9235      9238      9240      9236      9235      9237
      9236      9235      9238      9237      9235      9238      9238      9240      9241
      9238      9240      9242      9239      9238      9240      9240      9242      9243
      9240      9242      9244      9240      9242      9245      9241      9240      9242
      9242      9245      9246      9242      9245      9247      9243      9242      9244
      9243      9242      9245      9244      9242      9245      9245      9247      9248
      9245      9247      9249      9246      9245      9247      9247      9249      9250
      9247      9249      9251      9247      9249      9252      9248      9247      9249
      9249      9252      9253      9249      9252      9254      9250      9249      9251
      9250      9249      9252      9251      9249      9252      9252      9254      9255
      9252      9254      9256      9253      9252      9254      9254      9256      9257
      9254      9256      9258      9254      9256      9259      9255      9254      9256
      9256      9259      9260      9256      9259      9261      9256      9259      9262
      9257      9256      9258      9257      9256      9259      9258      9256      9259
      9259      9262      9263      9259      9262      9264      9259      9262      9265
      9260      9259      9261      9260      9259      9262      9261      9259      9262
      9262      9265      9266      9262      9265      9267      9262      9265      9268
      9263      9262      9264      9263      9262      9265      9264      9262      9265
      9265      9268      9269      9265      9268      9270      9265      9268      9271
      9266      9265      9267      9266      9265      9268      9267      9265      9268
      9269      9268      9270      9269      9268      9271      9270      9268      9271
      9272      9275      9276      9272      9275      9277      9272      9275      9278
      9273      9272      9274      9273      9272      9275      9274      9272      9275
      9275      9278      9279      9275      9278      9280      9275      9278      9281
      9276      9275      9277      9276      9275      9278      9277      9275      9278
      9278      9281      9282      9278      9281      9283      9278      9281      9284
      9279      9278      9280      9279      9278      9281      9280      9278      9281
      9281      9284      9285      9281      9284      9286      9281      9284      9287
      9282      9281      9283      9282      9281      9284      9283      9281      9284
      9284      9287      9288      9284      9287      9289      9284      9287      9290
      9285      9284      9286      9285      9284      9287      9286      9284      9287
      9287      9290      9291      9287      9290      9292      9287      9290      9293
      9288      9287      9289      9288      9287      9290      9289      9287      9290
      9290      9293      9294      9290      9293      9295      9290      9293      9296
      9291      9290      9292      9291      9290      9293      9292      9290      9293
      9293      9296      9297      9293      9296      9298      9293      9296      9299
      9294      9293      9295      9294      9293      9296      9295      9293      9296
      9296      9299      9300      9296      9299      9301      9296      9299      9302
      9297      9296      9298      9297      9296      9299      9298      9296      9299
      9299      9302      9303      9299      9302      9304      9299      9302      9305
      9300      9299      9301      9300      9299      9302      9301      9299      9302
      9302      9305      9306      9302      9305      9307      9302      9305      9308
      9303      9302      9304      9303      9302      9305      9304      9302      9305
      9305      9308      9309      9305      9308      9310      9305      9308      9311
      9306      9305      9307      9306      9305      9308      9307      9305      9308
      9308      9311      9312      9308      9311      9313      9308      9311      9314
      9309      9308      9310      9309      9308      9311      9310      9308      9311
      9311      9314      9315      9311      9314      9316      9311      9314      9317
      9312      9311      9313      9312      9311      9314      9313      9311      9314
      9314      9317      9318      9314      9317      9319      9314      9317      9320
      9315      9314      9316      9315      9314      9317      9316      9314      9317
      9318      9317      9319      9318      9317      9320      9319      9317      9320
      9321      9325      9326      9321      9325      9327      9321      9325      9330
      9322      9321      9323      9322      9321      9324      9322      9321      9325
      9323      9321      9324      9323      9321      9325      9324      9321      9325
      9325      9327      9328      9325      9327      9329      9325      9330      9331
      9325      9330      9332      9325      9330      9336      9326      9325      9327
      9326      9325      9330      9327      9325      9330      9328      9327      9329
      9330      9336      9333      9331      9330      9332      9331      9330      9336
      9332      9330      9336      9333      9337      9338      9334      9333      9335
      9334      9333      9336      9334      9333      9337      9335      9333      9336
      9335      9333      9337      9336      9333      9337      9337      9338      9339
      9337      9338      9340      9337      9338      9341      9338      9341      9342
      9338      9341      9343      9338      9341      9349      9339      9338      9340
      9339      9338      9341      9340      9338      9341      9341      9343      9344
      9341      9349      9350      9341      9349      9351      9341      9349      9352
      9342      9341      9343      9342      9341      9349      9343      9341      9349
      9343      9344      9345      9343      9344      9346      9344      9346      9347
      9344      9346      9348      9344      9346      9358      9345      9344      9346
      9346      9358      9359      9346      9358      9360      9346      9358      9361
      9347      9346      9348      9347      9346      9358      9348      9346      9358
      9349      9352      9353      9350      9349      9351      9350      9349      9352
      9351      9349      9352      9352      9353      9354      9352      9353      9355
      9353      9355      9356      9353      9355      9357      9353      9355      9405
      9354      9353      9355      9355      9405      9406      9355      9405      9407
      9355      9405      9408      9356      9355      9357      9356      9355      9405
      9357      9355      9405      9358      9361      9362      9358      9361      9363
      9358      9361      9364      9359      9358      9360      9359      9358      9361
      9360      9358      9361      9361      9364      9365      9361      9364      9366
      9362      9361      9363      9362      9361      9364      9363      9361      9364
      9364      9366      9367      9364      9366      9368      9365      9364      9366
      9366      9368      9369      9366      9368      9370      9366      9368      9371
      9367      9366      9368      9368      9371      9372      9368      9371      9373
      9369      9368      9370      9369      9368      9371      9370      9368      9371
      9371      9373      9374      9371      9373      9375      9372      9371      9373
      9373      9375      9376      9373      9375      9377      9373      9375      9378
      9374      9373      9375      9375      9378      9379      9375      9378      9380
      9376      9375      9377      9376      9375      9378      9377      9375      9378
      9378      9380      9381      9378      9380      9382      9379      9378      9380
      9380      9382      9383      9380      9382      9384      9380      9382      9385
      9381      9380      9382      9382      9385      9386      9382      9385      9387
      9383      9382      9384      9383      9382      9385      9384      9382      9385
      9385      9387      9388      9385      9387      9389      9386      9385      9387
      9387      9389      9390      9387      9389      9391      9387      9389      9392
      9388      9387      9389      9389      9392      9393      9389      9392      9394
      9389      9392      9395      9390      9389      9391      9390      9389      9392
      9391      9389      9392      9392      9395      9396      9392      9395      9397
      9392      9395      9398      9393      9392      9394      9393      9392      9395
      9394      9392      9395      9395      9398      9399      9395      9398      9400
      9395      9398      9401      9396      9395      9397      9396      9395      9398
      9397      9395      9398      9398      9401      9402      9398      9401      9403
      9398      9401      9404      9399      9398      9400      9399      9398      9401
      9400      9398      9401      9402      9401      9403      9402      9401      9404
      9403      9401      9404      9405      9408      9409      9405      9408      9410
      9405      9408      9411      9406      9405      9407      9406      9405      9408
      9407      9405      9408      9408      9411      9412      9408      9411      9413
      9408      9411      9414      9409      9408      9410      9409      9408      9411
      9410      9408      9411      9411      9414      9415      9411      9414      9416
      9411      9414      9417      9412      9411      9413      9412      9411      9414
      9413      9411      9414      9414      9417      9418      9414      9417      9419
      9414      9417      9420      9415      9414      9416      9415      9414      9417
      9416      9414      9417      9417      9420      9421      9417      9420      9422
      9417      9420      9423      9418      9417      9419      9418      9417      9420
      9419      9417      9420      9420      9423      9424      9420      9423      9425
      9420      9423      9426      9421      9420      9422      9421      9420      9423
      9422      9420      9423      9423      9426      9427      9423      9426      9428
      9423      9426      9429      9424      9423      9425      9424      9423      9426
      9425      9423      9426      9426      9429      9430      9426      9429      9431
      9426      9429      9432      9427      9426      9428      9427      9426      9429
      9428      9426      9429      9429      9432      9433      9429      9432      9434
      9429      9432      9435      9430      9429      9431      9430      9429      9432
      9431      9429      9432      9432      9435      9436      9432      9435      9437
      9432      9435      9438      9433      9432      9434      9433      9432      9435
      9434      9432      9435      9435      9438      9439      9435      9438      9440
      9435      9438      9441      9436      9435      9437      9436      9435      9438
      9437      9435      9438      9438      9441      9442      9438      9441      9443
      9438      9441      9444      9439      9438      9440      9439      9438      9441
      9440      9438      9441      9441      9444      9445      9441      9444      9446
      9441      9444      9447      9442      9441      9443      9442      9441      9444
      9443      9441      9444      9444      9447      9448      9444      9447      9449
      9444      9447      9450      9445      9444      9446      9445      9444      9447
      9446      9444      9447      9447      9450      9451      9447      9450      9452
      9447      9450      9453      9448      9447      9449      9448      9447      9450
      9449      9447      9450      9451      9450      9452      9451      9450      9453
      9452      9450      9453      9454      9456      9457      9454      9458      9459
      9454      9458      9460      9454      9458      9461      9454      9500      9497
      9454      9500      9501      9454      9500      9502      9455      9454      9456
      9455      9454      9458      9455      9454      9500      9456      9454      9458
      9456      9454      9500      9458      9454      9500      9458      9461      9462
      9458      9461      9492      9459      9458      9460      9459      9458      9461
      9460      9458      9461      9461      9462      9463      9461      9462      9464
      9461      9492      9490      9461      9492      9493      9461      9492      9497
      9462      9461      9492      9462      9464      9465      9462      9464      9466
      9462      9464      9467      9463      9462      9464      9464      9467      9468
      9464      9467      9469      9464      9467      9490      9465      9464      9466
      9465      9464      9467      9466      9464      9467      9467      9469      9470
      9467      9469      9471      9467      9469      9479      9467      9490      9487
      9467      9490      9491      9467      9490      9492      9468      9467      9469
      9468      9467      9490      9469      9467      9490      9469      9471      9472
      9469      9471      9473      9469      9471      9474      9469      9479      9477
      9469      9479      9480      9469      9479      9484      9470      9469      9471
      9470      9469      9479      9471      9469      9479      9471      9474      9475
      9471      9474      9476      9471      9474      9477      9472      9471      9473
      9472      9471      9474      9473      9471      9474      9474      9477      9478
      9474      9477      9479      9474      9477      9503      9475      9474      9476
      9475      9474      9477      9476      9474      9477      9477      9479      9480
      9477      9479      9484      9477      9503      9504      9477      9503      9505
      9477      9503      9509      9478      9477      9479      9478      9477      9503
      9479      9477      9503      9479      9480      9481      9479      9480      9482
      9479      9480      9483      9479      9484      9485      9479      9484      9486
      9479      9484      9487      9480      9479      9484      9481      9480      9482
      9481      9480      9483      9482      9480      9483      9484      9487      9488
      9484      9487      9489      9484      9487      9490      9485      9484      9486
      9485      9484      9487      9486      9484      9487      9487      9490      9491
      9487      9490      9492      9488      9487      9489      9488      9487      9490
      9489      9487      9490      9490      9492      9493      9490      9492      9497
      9491      9490      9492      9492      9493      9494      9492      9493      9495
      9492      9493      9496      9492      9497      9498      9492      9497      9499
      9492      9497      9500      9493      9492      9497      9494      9493      9495
      9494      9493      9496      9495      9493      9496      9497      9500      9501
      9497      9500      9502      9498      9497      9499      9498      9497      9500
      9499      9497      9500      9501      9500      9502      9503      9505      9506
      9503      9505      9507      9503      9505      9508      9503      9509      9510
      9503      9509      9511      9503      9509      9512      9504      9503      9505
      9504      9503      9509      9505      9503      9509      9506      9505      9507
      9506      9505      9508      9507      9505      9508      9509      9512      9513
      9509      9512      9514      9509      9512      9515      9510      9509      9511
      9510      9509      9512      9511      9509      9512      9512      9515      9516
      9512      9515      9517      9512      9515      9518      9513      9512      9514
      9513      9512      9515      9514      9512      9515      9515      9518      9519
      9515      9518      9520      9515      9518      9524      9516      9515      9517
      9516      9515      9518      9517      9515      9518      9518      9520      9521
      9518      9520      9522      9518      9520      9523      9518      9524      9525
      9518      9524      9526      9518      9524      9527      9519      9518      9520
      9519      9518      9524      9520      9518      9524      9521      9520      9522
      9521      9520      9523      9522      9520      9523      9525      9524      9526
      9525      9524      9527      9526      9524      9527      9528      9529      9530
      9528      9529      9531      9528      9529      9532      9528      9533      9534
      9528      9533      9535      9528      9533      9536      9528      9537      9538
      9528      9537      9539      9528      9537      9540      9528      9541      9542
      9528      9541      9543      9528      9541      9544      9529      9528      9533
      9529      9528      9537      9529      9528      9541      9530      9529      9531
      9530      9529      9532      9531      9529      9532      9533      9528      9537
      9533      9528      9541      9534      9533      9535      9534      9533      9536
      9535      9533      9536      9537      9528      9541      9538      9537      9539
      9538      9537      9540      9539      9537      9540      9541      9544      9545
      9541      9544      9546      9541      9544      9551      9542      9541      9543
      9542      9541      9544      9543      9541      9544      9544      9551      9547
      9545      9544      9546      9545      9544      9551      9546      9544      9551
      9547      9550      9552      9548      9547      9549      9548      9547      9550
      9548      9547      9551      9549      9547      9550      9549      9547      9551
      9550      9547      9551      9550      9552      9553      9550      9552      9554
      9550      9552      9557      9552      9557      9555      9552      9557      9558
      9552      9557      9559      9553      9552      9554      9553      9552      9557
      9554      9552      9557      9555      9557      9558      9555      9557      9559
      9555      9607      9608      9555      9607      9609      9556      9555      9557
      9556      9555      9607      9557      9555      9607      9557      9559      9560
      9557      9559      9561      9557      9559      9563      9558      9557      9559
      9559      9561      9562      9559      9563      9564      9559      9563      9565
      9560      9559      9561      9560      9559      9563      9561      9559      9563
      9563      9565      9566      9563      9565      9567      9564      9563      9565
      9565      9567      9568      9565      9567      9569      9565      9567      9570
      9566      9565      9567      9567      9570      9571      9567      9570      9572
      9567      9570      9573      9568      9567      9569      9568      9567      9570
      9569      9567      9570      9570      9573      9574      9570      9573      9575
      9570      9573      9576      9571      9570      9572      9571      9570      9573
      9572      9570      9573      9573      9576      9577      9573      9576      9578
      9573      9576      9579      9574      9573      9575      9574      9573      9576
      9575      9573      9576      9576      9579      9580      9576      9579      9581
      9576      9579      9582      9577      9576      9578      9577      9576      9579
      9578      9576      9579      9579      9582      9583      9579      9582      9584
      9579      9582      9585      9580      9579      9581      9580      9579      9582
      9581      9579      9582      9582      9585      9586      9582      9585      9587
      9582      9585      9588      9583      9582      9584      9583      9582      9585
      9584      9582      9585      9585      9588      9589      9585      9588      9590
      9585      9588      9591      9586      9585      9587      9586      9585      9588
      9587      9585      9588      9588      9591      9592      9588      9591      9593
      9588      9591      9594      9589      9588      9590      9589      9588      9591
      9590      9588      9591      9591      9594      9595      9591      9594      9596
      9591      9594      9597      9592      9591      9593      9592      9591      9594
      9593      9591      9594      9594      9597      9598      9594      9597      9599
      9594      9597      9600      9595      9594      9596      9595      9594      9597
      9596      9594      9597      9597      9600      9601      9597      9600      9602
      9597      9600      9603      9598      9597      9599      9598      9597      9600
      9599      9597      9600      9600      9603      9604      9600      9603      9605
      9600      9603      9606      9601      9600      9602      9601      9600      9603
      9602      9600      9603      9604      9603      9605      9604      9603      9606
      9605      9603      9606      9607      9609      9610      9607      9609      9611
      9607      9609      9612      9608      9607      9609      9609      9612      9613
      9609      9612      9614      9609      9612      9615      9610      9609      9611
      9610      9609      9612      9611      9609      9612      9612      9615      9616
      9612      9615      9617      9612      9615      9618      9613      9612      9614
      9613      9612      9615      9614      9612      9615      9615      9618      9619
      9615      9618      9620      9615      9618      9621      9616      9615      9617
      9616      9615      9618      9617      9615      9618      9618      9621      9622
      9618      9621      9623      9618      9621      9624      9619      9618      9620
      9619      9618      9621      9620      9618      9621      9621      9624      9625
      9621      9624      9626      9621      9624      9627      9622      9621      9623
      9622      9621      9624      9623      9621      9624      9624      9627      9628
      9624      9627      9629      9624      9627      9630      9625      9624      9626
      9625      9624      9627      9626      9624      9627      9627      9630      9631
      9627      9630      9632      9628      9627      9629      9628      9627      9630
      9629      9627      9630      9630      9632      9633      9630      9632      9634
      9631      9630      9632      9632      9634      9635      9632      9634      9636
      9632      9634      9637      9633      9632      9634      9634      9637      9638
      9634      9637      9639      9634      9637      9640      9635      9634      9636
      9635      9634      9637      9636      9634      9637      9637      9640      9641
      9637      9640      9642      9637      9640      9643      9638      9637      9639
      9638      9637      9640      9639      9637      9640      9640      9643      9644
      9640      9643      9645      9640      9643      9646      9641      9640      9642
      9641      9640      9643      9642      9640      9643      9643      9646      9647
      9643      9646      9648      9643      9646      9649      9644      9643      9645
      9644      9643      9646      9645      9643      9646      9646      9649      9650
      9646      9649      9651      9646      9649      9652      9647      9646      9648
      9647      9646      9649      9648      9646      9649      9649      9652      9653
      9649      9652      9654      9649      9652      9655      9650      9649      9651
      9650      9649      9652      9651      9649      9652      9652      9655      9656
      9652      9655      9657      9652      9655      9658      9653      9652      9654
      9653      9652      9655      9654      9652      9655      9656      9655      9657
      9656      9655      9658      9657      9655      9658      9659      9663      9664
      9659      9663      9665      9659      9663      9668      9660      9659      9661
      9660      9659      9662      9660      9659      9663      9661      9659      9662
      9661      9659      9663      9662      9659      9663      9663      9665      9666
      9663      9665      9667      9663      9668      9669      9663      9668      9670
      9663      9668      9674      9664      9663      9665      9664      9663      9668
      9665      9663      9668      9666      9665      9667      9668      9674      9671
      9669      9668      9670      9669      9668      9674      9670      9668      9674
      9671      9675      9676      9672      9671      9673      9672      9671      9674
      9672      9671      9675      9673      9671      9674      9673      9671      9675
      9674      9671      9675      9675      9676      9677      9675      9676      9678
      9675      9676      9679      9676      9679      9680      9676      9679      9681
      9676      9679      9687      9677      9676      9678      9677      9676      9679
      9678      9676      9679      9679      9681      9682      9679      9687      9688
      9679      9687      9689      9679      9687      9690      9680      9679      9681
      9680      9679      9687      9681      9679      9687      9681      9682      9683
      9681      9682      9684      9682      9684      9685      9682      9684      9686
      9682      9684      9696      9683      9682      9684      9684      9696      9697
      9684      9696      9698      9684      9696      9699      9685      9684      9686
      9685      9684      9696      9686      9684      9696      9687      9690      9691
      9688      9687      9689      9688      9687      9690      9689      9687      9690
      9690      9691      9692      9690      9691      9693      9691      9693      9694
      9691      9693      9695      9691      9693      9743      9692      9691      9693
      9693      9743      9744      9693      9743      9745      9693      9743      9746
      9694      9693      9695      9694      9693      9743      9695      9693      9743
      9696      9699      9700      9696      9699      9701      9696      9699      9702
      9697      9696      9698      9697      9696      9699      9698      9696      9699
      9699      9702      9703      9699      9702      9704      9700      9699      9701
      9700      9699      9702      9701      9699      9702      9702      9704      9705
      9702      9704      9706      9703      9702      9704      9704      9706      9707
      9704      9706      9708      9704      9706      9709      9705      9704      9706
      9706      9709      9710      9706      9709      9711      9707      9706      9708
      9707      9706      9709      9708      9706      9709      9709      9711      9712
      9709      9711      9713      9710      9709      9711      9711      9713      9714
      9711      9713      9715      9711      9713      9716      9712      9711      9713
      9713      9716      9717      9713      9716      9718      9714      9713      9715
      9714      9713      9716      9715      9713      9716      9716      9718      9719
      9716      9718      9720      9717      9716      9718      9718      9720      9721
      9718      9720      9722      9718      9720      9723      9719      9718      9720
      9720      9723      9724      9720      9723      9725      9721      9720      9722
      9721      9720      9723      9722      9720      9723      9723      9725      9726
      9723      9725      9727      9724      9723      9725      9725      9727      9728
      9725      9727      9729      9725      9727      9730      9726      9725      9727
      9727      9730      9731      9727      9730      9732      9727      9730      9733
      9728      9727      9729      9728      9727      9730      9729      9727      9730
      9730      9733      9734      9730      9733      9735      9730      9733      9736
      9731      9730      9732      9731      9730      9733      9732      9730      9733
      9733      9736      9737      9733      9736      9738      9733      9736      9739
      9734      9733      9735      9734      9733      9736      9735      9733      9736
      9736      9739      9740      9736      9739      9741      9736      9739      9742
      9737      9736      9738      9737      9736      9739      9738      9736      9739
      9740      9739      9741      9740      9739      9742      9741      9739      9742
      9743      9746      9747      9743      9746      9748      9743      9746      9749
      9744      9743      9745      9744      9743      9746      9745      9743      9746
      9746      9749      9750      9746      9749      9751      9746      9749      9752
      9747      9746      9748      9747      9746      9749      9748      9746      9749
      9749      9752      9753      9749      9752      9754      9749      9752      9755
      9750      9749      9751      9750      9749      9752      9751      9749      9752
      9752      9755      9756      9752      9755      9757      9752      9755      9758
      9753      9752      9754      9753      9752      9755      9754      9752      9755
      9755      9758      9759      9755      9758      9760      9755      9758      9761
      9756      9755      9757      9756      9755      9758      9757      9755      9758
      9758      9761      9762      9758      9761      9763      9758      9761      9764
      9759      9758      9760      9759      9758      9761      9760      9758      9761
      9761      9764      9765      9761      9764      9766      9761      9764      9767
      9762      9761      9763      9762      9761      9764      9763      9761      9764
      9764      9767      9768      9764      9767      9769      9764      9767      9770
      9765      9764      9766      9765      9764      9767      9766      9764      9767
      9767      9770      9771      9767      9770      9772      9767      9770      9773
      9768      9767      9769      9768      9767      9770      9769      9767      9770
      9770      9773      9774      9770      9773      9775      9770      9773      9776
      9771      9770      9772      9771      9770      9773      9772      9770      9773
      9773      9776      9777      9773      9776      9778      9773      9776      9779
      9774      9773      9775      9774      9773      9776      9775      9773      9776
      9776      9779      9780      9776      9779      9781      9776      9779      9782
      9777      9776      9778      9777      9776      9779      9778      9776      9779
      9779      9782      9783      9779      9782      9784      9779      9782      9785
      9780      9779      9781      9780      9779      9782      9781      9779      9782
      9782      9785      9786      9782      9785      9787      9782      9785      9788
      9783      9782      9784      9783      9782      9785      9784      9782      9785
      9785      9788      9789      9785      9788      9790      9785      9788      9791
      9786      9785      9787      9786      9785      9788      9787      9785      9788
      9789      9788      9790      9789      9788      9791      9790      9788      9791
      9792      9793      9794      9792      9793      9795      9792      9793      9808
      9792      9796      9797      9792      9796      9798      9792      9796      9799
      9792      9800      9801      9792      9800      9802      9792      9800      9803
      9792      9804      9805      9792      9804      9806      9792      9804      9807
      9793      9792      9796      9793      9792      9800      9793      9792      9804
      9793      9808      9809      9793      9808      9810      9793      9808      9814
      9794      9793      9795      9794      9793      9808      9795      9793      9808
      9796      9792      9800      9796      9792      9804      9797      9796      9798
      9797      9796      9799      9798      9796      9799      9800      9792      9804
      9801      9800      9802      9801      9800      9803      9802      9800      9803
      9805      9804      9806      9805      9804      9807      9806      9804      9807
      9808      9814      9811      9809      9808      9810      9809      9808      9814
      9810      9808      9814      9811      9815      9816      9812      9811      9813
      9812      9811      9814      9812      9811      9815      9813      9811      9814
      9813      9811      9815      9814      9811      9815      9815      9816      9817
      9815      9816      9818      9815      9816      9819      9816      9819      9820
      9816      9819      9821      9816      9819      9827      9817      9816      9818
      9817      9816      9819      9818      9816      9819      9819      9821      9822
      9819      9827      9828      9819      9827      9829      9819      9827      9830
      9820      9819      9821      9820      9819      9827      9821      9819      9827
      9821      9822      9823      9821      9822      9824      9822      9824      9825
      9822      9824      9826      9822      9824      9836      9823      9822      9824
      9824      9836      9837      9824      9836      9838      9824      9836      9839
      9825      9824      9826      9825      9824      9836      9826      9824      9836
      9827      9830      9831      9828      9827      9829      9828      9827      9830
      9829      9827      9830      9830      9831      9832      9830      9831      9833
      9831      9833      9834      9831      9833      9835      9831      9833      9883
      9832      9831      9833      9833      9883      9884      9833      9883      9885
      9833      9883      9886      9834      9833      9835      9834      9833      9883
      9835      9833      9883      9836      9839      9840      9836      9839      9841
      9836      9839      9842      9837      9836      9838      9837      9836      9839
      9838      9836      9839      9839      9842      9843      9839      9842      9844
      9840      9839      9841      9840      9839      9842      9841      9839      9842
      9842      9844      9845      9842      9844      9846      9843      9842      9844
      9844      9846      9847      9844      9846      9848      9844      9846      9849
      9845      9844      9846      9846      9849      9850      9846      9849      9851
      9847      9846      9848      9847      9846      9849      9848      9846      9849
      9849      9851      9852      9849      9851      9853      9850      9849      9851
      9851      9853      9854      9851      9853      9855      9851      9853      9856
      9852      9851      9853      9853      9856      9857      9853      9856      9858
      9854      9853      9855      9854      9853      9856      9855      9853      9856
      9856      9858      9859      9856      9858      9860      9857      9856      9858
      9858      9860      9861      9858      9860      9862      9858      9860      9863
      9859      9858      9860      9860      9863      9864      9860      9863      9865
      9861      9860      9862      9861      9860      9863      9862      9860      9863
      9863      9865      9866      9863      9865      9867      9864      9863      9865
      9865      9867      9868      9865      9867      9869      9865      9867      9870
      9866      9865      9867      9867      9870      9871      9867      9870      9872
      9867      9870      9873      9868      9867      9869      9868      9867      9870
      9869      9867      9870      9870      9873      9874      9870      9873      9875
      9870      9873      9876      9871      9870      9872      9871      9870      9873
      9872      9870      9873      9873      9876      9877      9873      9876      9878
      9873      9876      9879      9874      9873      9875      9874      9873      9876
      9875      9873      9876      9876      9879      9880      9876      9879      9881
      9876      9879      9882      9877      9876      9878      9877      9876      9879
      9878      9876      9879      9880      9879      9881      9880      9879      9882
      9881      9879      9882      9883      9886      9887      9883      9886      9888
      9883      9886      9889      9884      9883      9885      9884      9883      9886
      9885      9883      9886      9886      9889      9890      9886      9889      9891
      9886      9889      9892      9887      9886      9888      9887      9886      9889
      9888      9886      9889      9889      9892      9893      9889      9892      9894
      9889      9892      9895      9890      9889      9891      9890      9889      9892
      9891      9889      9892      9892      9895      9896      9892      9895      9897
      9892      9895      9898      9893      9892      9894      9893      9892      9895
      9894      9892      9895      9895      9898      9899      9895      9898      9900
      9895      9898      9901      9896      9895      9897      9896      9895      9898
      9897      9895      9898      9898      9901      9902      9898      9901      9903
      9898      9901      9904      9899      9898      9900      9899      9898      9901
      9900      9898      9901      9901      9904      9905      9901      9904      9906
      9901      9904      9907      9902      9901      9903      9902      9901      9904
      9903      9901      9904      9904      9907      9908      9904      9907      9909
      9904      9907      9910      9905      9904      9906      9905      9904      9907
      9906      9904      9907      9907      9910      9911      9907      9910      9912
      9907      9910      9913      9908      9907      9909      9908      9907      9910
      9909      9907      9910      9910      9913      9914      9910      9913      9915
      9910      9913      9916      9911      9910      9912      9911      9910      9913
      9912      9910      9913      9913      9916      9917      9913      9916      9918
      9913      9916      9919      9914      9913      9915      9914      9913      9916
      9915      9913      9916      9916      9919      9920      9916      9919      9921
      9916      9919      9922      9917      9916      9918      9917      9916      9919
      9918      9916      9919      9919      9922      9923      9919      9922      9924
      9919      9922      9925      9920      9919      9921      9920      9919      9922
      9921      9919      9922      9922      9925      9926      9922      9925      9927
      9922      9925      9928      9923      9922      9924      9923      9922      9925
      9924      9922      9925      9925      9928      9929      9925      9928      9930
      9925      9928      9931      9926      9925      9927      9926      9925      9928
      9927      9925      9928      9929      9928      9930      9929      9928      9931
      9930      9928      9931      9932      9934      9935      9932      9936      9937
      9932      9936      9938      9932      9936      9939      9932      9978      9975
      9932      9978      9979      9932      9978      9980      9933      9932      9934
      9933      9932      9936      9933      9932      9978      9934      9932      9936
      9934      9932      9978      9936      9932      9978      9936      9939      9940
      9936      9939      9970      9937      9936      9938      9937      9936      9939
      9938      9936      9939      9939      9940      9941      9939      9940      9942
      9939      9970      9968      9939      9970      9971      9939      9970      9975
      9940      9939      9970      9940      9942      9943      9940      9942      9944
      9940      9942      9945      9941      9940      9942      9942      9945      9946
      9942      9945      9947      9942      9945      9968      9943      9942      9944
      9943      9942      9945      9944      9942      9945      9945      9947      9948
      9945      9947      9949      9945      9947      9957      9945      9968      9965
      9945      9968      9969      9945      9968      9970      9946      9945      9947
      9946      9945      9968      9947      9945      9968      9947      9949      9950
      9947      9949      9951      9947      9949      9952      9947      9957      9955
      9947      9957      9958      9947      9957      9962      9948      9947      9949
      9948      9947      9957      9949      9947      9957      9949      9952      9953
      9949      9952      9954      9949      9952      9955      9950      9949      9951
      9950      9949      9952      9951      9949      9952      9952      9955      9956
      9952      9955      9957      9952      9955      9981      9953      9952      9954
      9953      9952      9955      9954      9952      9955      9955      9957      9958
      9955      9957      9962      9955      9981      9982      9955      9981      9983
      9955      9981      9987      9956      9955      9957      9956      9955      9981
      9957      9955      9981      9957      9958      9959      9957      9958      9960
      9957      9958      9961      9957      9962      9963      9957      9962      9964
      9957      9962      9965      9958      9957      9962      9959      9958      9960
      9959      9958      9961      9960      9958      9961      9962      9965      9966
      9962      9965      9967      9962      9965      9968      9963      9962      9964
      9963      9962      9965      9964      9962      9965      9965      9968      9969
      9965      9968      9970      9966      9965      9967      9966      9965      9968
      9967      9965      9968      9968      9970      9971      9968      9970      9975
      9969      9968      9970      9970      9971      9972      9970      9971      9973
      9970      9971      9974      9970      9975      9976      9970      9975      9977
      9970      9975      9978      9971      9970      9975      9972      9971      9973
      9972      9971      9974      9973      9971      9974      9975      9978      9979
      9975      9978      9980      9976      9975      9977      9976      9975      9978
      9977      9975      9978      9979      9978      9980      9981      9983      9984
      9981      9983      9985      9981      9983      9986      9981      9987      9988
      9981      9987      9989      9981      9987      9990      9982      9981      9983
      9982      9981      9987      9983      9981      9987      9984      9983      9985
      9984      9983      9986      9985      9983      9986      9987      9990      9991
      9987      9990      9992      9987      9990      9993      9988      9987      9989
      9988      9987      9990      9989      9987      9990      9990      9993      9994
      9990      9993      9995      9990      9993      9996      9991      9990      9992
      9991      9990      9993      9992      9990      9993      9993      9996      9997
      9993      9996      9998      9993      9996     10002      9994      9993      9995
      9994      9993      9996      9995      9993      9996      9996      9998      9999
      9996      9998     10000      9996      9998     10001      9996     10002     10003
      9996     10002     10004      9996     10002     10005      9997      9996      9998
      9997      9996     10002      9998      9996     10002      9999      9998     10000
      9999      9998     10001     10000      9998     10001     10003     10002     10004
     10003     10002     10005     10004     10002     10005     10006     10007     10008
     10006     10007     10009     10006     10007     10010     10006     10011     10012
     10006     10011     10013     10006     10011     10014     10006     10015     10016
     10006     10015     10017     10006     10015     10018     10006     10019     10020
     10006     10019     10021     10006     10019     10022     10007     10006     10011
     10007     10006     10015     10007     10006     10019     10008     10007     10009
     10008     10007     10010     10009     10007     10010     10011     10006     10015
     10011     10006     10019     10012     10011     10013     10012     10011     10014
     10013     10011     10014     10015     10006     10019     10016     10015     10017
     10016     10015     10018     10017     10015     10018     10019     10022     10023
     10019     10022     10024     10019     10022     10028     10020     10019     10021
     10020     10019     10022     10021     10019     10022     10022     10028     10025
     10023     10022     10024     10023     10022     10028     10024     10022     10028
     10025     10029     10030     10026     10025     10027     10026     10025     10028
     10026     10025     10029     10027     10025     10028     10027     10025     10029
     10028     10025     10029     10029     10030     10031     10029     10030     10032
     10029     10030     10033     10030     10033     10034     10030     10033     10035
     10030     10033     10041     10031     10030     10032     10031     10030     10033
     10032     10030     10033     10033     10035     10036     10033     10041     10042
     10033     10041     10043     10033     10041     10044     10034     10033     10035
     10034     10033     10041     10035     10033     10041     10035     10036     10037
     10035     10036     10038     10036     10038     10039     10036     10038     10040
     10036     10038     10050     10037     10036     10038     10038     10050     10051
     10038     10050     10052     10038     10050     10053     10039     10038     10040
     10039     10038     10050     10040     10038     10050     10041     10044     10045
     10042     10041     10043     10042     10041     10044     10043     10041     10044
     10044     10045     10046     10044     10045     10047     10045     10047     10048
     10045     10047     10049     10045     10047     10095     10046     10045     10047
     10047     10095     10096     10047     10095     10097     10047     10095     10098
     10048     10047     10049     10048     10047     10095     10049     10047     10095
     10050     10053     10054     10050     10053     10055     10050     10053     10056
     10051     10050     10052     10051     10050     10053     10052     10050     10053
     10053     10056     10057     10053     10056     10058     10053     10056     10059
     10054     10053     10055     10054     10053     10056     10055     10053     10056
     10056     10059     10060     10056     10059     10061     10056     10059     10062
     10057     10056     10058     10057     10056     10059     10058     10056     10059
     10059     10062     10063     10059     10062     10064     10059     10062     10065
     10060     10059     10061     10060     10059     10062     10061     10059     10062
     10062     10065     10066     10062     10065     10067     10062     10065     10068
     10063     10062     10064     10063     10062     10065     10064     10062     10065
     10065     10068     10069     10065     10068     10070     10066     10065     10067
     10066     10065     10068     10067     10065     10068     10068     10070     10071
     10068     10070     10072     10069     10068     10070     10070     10072     10073
     10070     10072     10074     10070     10072     10075     10071     10070     10072
     10072     10075     10076     10072     10075     10077     10073     10072     10074
     10073     10072     10075     10074     10072     10075     10075     10077     10078
     10075     10077     10079     10076     10075     10077     10077     10079     10080
     10077     10079     10081     10077     10079     10082     10078     10077     10079
     10079     10082     10083     10079     10082     10084     10079     10082     10085
     10080     10079     10081     10080     10079     10082     10081     10079     10082
     10082     10085     10086     10082     10085     10087     10082     10085     10088
     10083     10082     10084     10083     10082     10085     10084     10082     10085
     10085     10088     10089     10085     10088     10090     10085     10088     10091
     10086     10085     10087     10086     10085     10088     10087     10085     10088
     10088     10091     10092     10088     10091     10093     10088     10091     10094
     10089     10088     10090     10089     10088     10091     10090     10088     10091
     10092     10091     10093     10092     10091     10094     10093     10091     10094
     10095     10098     10099     10095     10098     10100     10095     10098     10101
     10096     10095     10097     10096     10095     10098     10097     10095     10098
     10098     10101     10102     10098     10101     10103     10098     10101     10104
     10099     10098     10100     10099     10098     10101     10100     10098     10101
     10101     10104     10105     10101     10104     10106     10101     10104     10107
     10102     10101     10103     10102     10101     10104     10103     10101     10104
     10104     10107     10108     10104     10107     10109     10104     10107     10110
     10105     10104     10106     10105     10104     10107     10106     10104     10107
     10107     10110     10111     10107     10110     10112     10107     10110     10113
     10108     10107     10109     10108     10107     10110     10109     10107     10110
     10110     10113     10114     10110     10113     10115     10110     10113     10116
     10111     10110     10112     10111     10110     10113     10112     10110     10113
     10113     10116     10117     10113     10116     10118     10113     10116     10119
     10114     10113     10115     10114     10113     10116     10115     10113     10116
     10116     10119     10120     10116     10119     10121     10116     10119     10122
     10117     10116     10118     10117     10116     10119     10118     10116     10119
     10119     10122     10123     10119     10122     10124     10119     10122     10125
     10120     10119     10121     10120     10119     10122     10121     10119     10122
     10122     10125     10126     10122     10125     10127     10122     10125     10128
     10123     10122     10124     10123     10122     10125     10124     10122     10125
     10125     10128     10129     10125     10128     10130     10125     10128     10131
     10126     10125     10127     10126     10125     10128     10127     10125     10128
     10128     10131     10132     10128     10131     10133     10128     10131     10134
     10129     10128     10130     10129     10128     10131     10130     10128     10131
     10131     10134     10135     10131     10134     10136     10131     10134     10137
     10132     10131     10133     10132     10131     10134     10133     10131     10134
     10134     10137     10138     10134     10137     10139     10134     10137     10140
     10135     10134     10136     10135     10134     10137     10136     10134     10137
     10137     10140     10141     10137     10140     10142     10137     10140     10143
     10138     10137     10139     10138     10137     10140     10139     10137     10140
     10141     10140     10142     10141     10140     10143     10142     10140     10143
     10144     10145     10146     10144     10145     10147     10144     10145     10148
     10144     10149     10150     10144     10149     10151     10144     10149     10152
     10144     10153     10154     10144     10153     10155     10144     10153     10156
     10144     10157     10158     10144     10157     10159     10144     10157     10160
     10145     10144     10149     10145     10144     10153     10145     10144     10157
     10146     10145     10147     10146     10145     10148     10147     10145     10148
     10149     10144     10153     10149     10144     10157     10150     10149     10151
     10150     10149     10152     10151     10149     10152     10153     10144     10157
     10154     10153     10155     10154     10153     10156     10155     10153     10156
     10157     10160     10161     10157     10160     10162     10157     10160     10166
     10158     10157     10159     10158     10157     10160     10159     10157     10160
     10160     10166     10163     10161     10160     10162     10161     10160     10166
     10162     10160     10166     10163     10167     10168     10164     10163     10165
     10164     10163     10166     10164     10163     10167     10165     10163     10166
     10165     10163     10167     10166     10163     10167     10167     10168     10169
     10167     10168     10170     10167     10168     10171     10168     10171     10172
     10168     10171     10173     10168     10171     10179     10169     10168     10170
     10169     10168     10171     10170     10168     10171     10171     10173     10174
     10171     10179     10180     10171     10179     10181     10171     10179     10182
     10172     10171     10173     10172     10171     10179     10173     10171     10179
     10173     10174     10175     10173     10174     10176     10174     10176     10177
     10174     10176     10178     10174     10176     10188     10175     10174     10176
     10176     10188     10189     10176     10188     10190     10176     10188     10191
     10177     10176     10178     10177     10176     10188     10178     10176     10188
     10179     10182     10183     10180     10179     10181     10180     10179     10182
     10181     10179     10182     10182     10183     10184     10182     10183     10185
     10183     10185     10186     10183     10185     10187     10183     10185     10233
     10184     10183     10185     10185     10233     10234     10185     10233     10235
     10185     10233     10236     10186     10185     10187     10186     10185     10233
     10187     10185     10233     10188     10191     10192     10188     10191     10193
     10188     10191     10194     10189     10188     10190     10189     10188     10191
     10190     10188     10191     10191     10194     10195     10191     10194     10196
     10191     10194     10197     10192     10191     10193     10192     10191     10194
     10193     10191     10194     10194     10197     10198     10194     10197     10199
     10194     10197     10200     10195     10194     10196     10195     10194     10197
     10196     10194     10197     10197     10200     10201     10197     10200     10202
     10197     10200     10203     10198     10197     10199     10198     10197     10200
     10199     10197     10200     10200     10203     10204     10200     10203     10205
     10200     10203     10206     10201     10200     10202     10201     10200     10203
     10202     10200     10203     10203     10206     10207     10203     10206     10208
     10204     10203     10205     10204     10203     10206     10205     10203     10206
     10206     10208     10209     10206     10208     10210     10207     10206     10208
     10208     10210     10211     10208     10210     10212     10208     10210     10213
     10209     10208     10210     10210     10213     10214     10210     10213     10215
     10211     10210     10212     10211     10210     10213     10212     10210     10213
     10213     10215     10216     10213     10215     10217     10214     10213     10215
     10215     10217     10218     10215     10217     10219     10215     10217     10220
     10216     10215     10217     10217     10220     10221     10217     10220     10222
     10217     10220     10223     10218     10217     10219     10218     10217     10220
     10219     10217     10220     10220     10223     10224     10220     10223     10225
     10220     10223     10226     10221     10220     10222     10221     10220     10223
     10222     10220     10223     10223     10226     10227     10223     10226     10228
     10223     10226     10229     10224     10223     10225     10224     10223     10226
     10225     10223     10226     10226     10229     10230     10226     10229     10231
     10226     10229     10232     10227     10226     10228     10227     10226     10229
     10228     10226     10229     10230     10229     10231     10230     10229     10232
     10231     10229     10232     10233     10236     10237     10233     10236     10238
     10233     10236     10239     10234     10233     10235     10234     10233     10236
     10235     10233     10236     10236     10239     10240     10236     10239     10241
     10236     10239     10242     10237     10236     10238     10237     10236     10239
     10238     10236     10239     10239     10242     10243     10239     10242     10244
     10239     10242     10245     10240     10239     10241     10240     10239     10242
     10241     10239     10242     10242     10245     10246     10242     10245     10247
     10242     10245     10248     10243     10242     10244     10243     10242     10245
     10244     10242     10245     10245     10248     10249     10245     10248     10250
     10245     10248     10251     10246     10245     10247     10246     10245     10248
     10247     10245     10248     10248     10251     10252     10248     10251     10253
     10248     10251     10254     10249     10248     10250     10249     10248     10251
     10250     10248     10251     10251     10254     10255     10251     10254     10256
     10251     10254     10257     10252     10251     10253     10252     10251     10254
     10253     10251     10254     10254     10257     10258     10254     10257     10259
     10254     10257     10260     10255     10254     10256     10255     10254     10257
     10256     10254     10257     10257     10260     10261     10257     10260     10262
     10257     10260     10263     10258     10257     10259     10258     10257     10260
     10259     10257     10260     10260     10263     10264     10260     10263     10265
     10260     10263     10266     10261     10260     10262     10261     10260     10263
     10262     10260     10263     10263     10266     10267     10263     10266     10268
     10263     10266     10269     10264     10263     10265     10264     10263     10266
     10265     10263     10266     10266     10269     10270     10266     10269     10271
     10266     10269     10272     10267     10266     10268     10267     10266     10269
     10268     10266     10269     10269     10272     10273     10269     10272     10274
     10269     10272     10275     10270     10269     10271     10270     10269     10272
     10271     10269     10272     10272     10275     10276     10272     10275     10277
     10272     10275     10278     10273     10272     10274     10273     10272     10275
     10274     10272     10275     10275     10278     10279     10275     10278     10280
     10275     10278     10281     10276     10275     10277     10276     10275     10278
     10277     10275     10278     10279     10278     10280     10279     10278     10281
     10280     10278     10281     10282     10283     10284     10282     10283     10285
     10282     10283     10298     10282     10286     10287     10282     10286     10288
     10282     10286     10289     10282     10290     10291     10282     10290     10292
     10282     10290     10293     10282     10294     10295     10282     10294     10296
     10282     10294     10297     10283     10282     10286     10283     10282     10290
     10283     10282     10294     10283     10298     10299     10283     10298     10300
     10283     10298     10304     10284     10283     10285     10284     10283     10298
     10285     10283     10298     10286     10282     10290     10286     10282     10294
     10287     10286     10288     10287     10286     10289     10288     10286     10289
     10290     10282     10294     10291     10290     10292     10291     10290     10293
     10292     10290     10293     10295     10294     10296     10295     10294     10297
     10296     10294     10297     10298     10304     10301     10299     10298     10300
     10299     10298     10304     10300     10298     10304     10301     10305     10306
     10302     10301     10303     10302     10301     10304     10302     10301     10305
     10303     10301     10304     10303     10301     10305     10304     10301     10305
     10305     10306     10307     10305     10306     10308     10305     10306     10309
     10306     10309     10310     10306     10309     10311     10306     10309     10317
     10307     10306     10308     10307     10306     10309     10308     10306     10309
     10309     10311     10312     10309     10317     10318     10309     10317     10319
     10309     10317     10320     10310     10309     10311     10310     10309     10317
     10311     10309     10317     10311     10312     10313     10311     10312     10314
     10312     10314     10315     10312     10314     10316     10312     10314     10326
     10313     10312     10314     10314     10326     10327     10314     10326     10328
     10314     10326     10329     10315     10314     10316     10315     10314     10326
     10316     10314     10326     10317     10320     10321     10318     10317     10319
     10318     10317     10320     10319     10317     10320     10320     10321     10322
     10320     10321     10323     10321     10323     10324     10321     10323     10325
     10321     10323     10373     10322     10321     10323     10323     10373     10374
     10323     10373     10375     10323     10373     10376     10324     10323     10325
     10324     10323     10373     10325     10323     10373     10326     10329     10330
     10326     10329     10331     10326     10329     10332     10327     10326     10328
     10327     10326     10329     10328     10326     10329     10329     10332     10333
     10329     10332     10334     10329     10332     10335     10330     10329     10331
     10330     10329     10332     10331     10329     10332     10332     10335     10336
     10332     10335     10337     10332     10335     10338     10333     10332     10334
     10333     10332     10335     10334     10332     10335     10335     10338     10339
     10335     10338     10340     10335     10338     10341     10336     10335     10337
     10336     10335     10338     10337     10335     10338     10338     10341     10342
     10338     10341     10343     10338     10341     10344     10339     10338     10340
     10339     10338     10341     10340     10338     10341     10341     10344     10345
     10341     10344     10346     10342     10341     10343     10342     10341     10344
     10343     10341     10344     10344     10346     10347     10344     10346     10348
     10345     10344     10346     10346     10348     10349     10346     10348     10350
     10346     10348     10351     10347     10346     10348     10348     10351     10352
     10348     10351     10353     10348     10351     10354     10349     10348     10350
     10349     10348     10351     10350     10348     10351     10351     10354     10355
     10351     10354     10356     10351     10354     10357     10352     10351     10353
     10352     10351     10354     10353     10351     10354     10354     10357     10358
     10354     10357     10359     10354     10357     10360     10355     10354     10356
     10355     10354     10357     10356     10354     10357     10357     10360     10361
     10357     10360     10362     10357     10360     10363     10358     10357     10359
     10358     10357     10360     10359     10357     10360     10360     10363     10364
     10360     10363     10365     10360     10363     10366     10361     10360     10362
     10361     10360     10363     10362     10360     10363     10363     10366     10367
     10363     10366     10368     10363     10366     10369     10364     10363     10365
     10364     10363     10366     10365     10363     10366     10366     10369     10370
     10366     10369     10371     10366     10369     10372     10367     10366     10368
     10367     10366     10369     10368     10366     10369     10370     10369     10371
     10370     10369     10372     10371     10369     10372     10373     10376     10377
     10373     10376     10378     10373     10376     10379     10374     10373     10375
     10374     10373     10376     10375     10373     10376     10376     10379     10380
     10376     10379     10381     10376     10379     10382     10377     10376     10378
     10377     10376     10379     10378     10376     10379     10379     10382     10383
     10379     10382     10384     10379     10382     10385     10380     10379     10381
     10380     10379     10382     10381     10379     10382     10382     10385     10386
     10382     10385     10387     10382     10385     10388     10383     10382     10384
     10383     10382     10385     10384     10382     10385     10385     10388     10389
     10385     10388     10390     10385     10388     10391     10386     10385     10387
     10386     10385     10388     10387     10385     10388     10388     10391     10392
     10388     10391     10393     10388     10391     10394     10389     10388     10390
     10389     10388     10391     10390     10388     10391     10391     10394     10395
     10391     10394     10396     10391     10394     10397     10392     10391     10393
     10392     10391     10394     10393     10391     10394     10394     10397     10398
     10394     10397     10399     10394     10397     10400     10395     10394     10396
     10395     10394     10397     10396     10394     10397     10397     10400     10401
     10397     10400     10402     10397     10400     10403     10398     10397     10399
     10398     10397     10400     10399     10397     10400     10400     10403     10404
     10400     10403     10405     10400     10403     10406     10401     10400     10402
     10401     10400     10403     10402     10400     10403     10403     10406     10407
     10403     10406     10408     10403     10406     10409     10404     10403     10405
     10404     10403     10406     10405     10403     10406     10406     10409     10410
     10406     10409     10411     10406     10409     10412     10407     10406     10408
     10407     10406     10409     10408     10406     10409     10409     10412     10413
     10409     10412     10414     10409     10412     10415     10410     10409     10411
     10410     10409     10412     10411     10409     10412     10413     10412     10414
     10413     10412     10415     10414     10412     10415     10416     10418     10419
     10416     10420     10421     10416     10420     10422     10416     10420     10423
     10416     10462     10459     10416     10462     10463     10416     10462     10464
     10417     10416     10418     10417     10416     10420     10417     10416     10462
     10418     10416     10420     10418     10416     10462     10420     10416     10462
     10420     10423     10424     10420     10423     10454     10421     10420     10422
     10421     10420     10423     10422     10420     10423     10423     10424     10425
     10423     10424     10426     10423     10454     10452     10423     10454     10455
     10423     10454     10459     10424     10423     10454     10424     10426     10427
     10424     10426     10428     10424     10426     10429     10425     10424     10426
     10426     10429     10430     10426     10429     10431     10426     10429     10452
     10427     10426     10428     10427     10426     10429     10428     10426     10429
     10429     10431     10432     10429     10431     10433     10429     10431     10441
     10429     10452     10449     10429     10452     10453     10429     10452     10454
     10430     10429     10431     10430     10429     10452     10431     10429     10452
     10431     10433     10434     10431     10433     10435     10431     10433     10436
     10431     10441     10439     10431     10441     10442     10431     10441     10446
     10432     10431     10433     10432     10431     10441     10433     10431     10441
     10433     10436     10437     10433     10436     10438     10433     10436     10439
     10434     10433     10435     10434     10433     10436     10435     10433     10436
     10436     10439     10440     10436     10439     10441     10436     10439     10465
     10437     10436     10438     10437     10436     10439     10438     10436     10439
     10439     10441     10442     10439     10441     10446     10439     10465     10466
     10439     10465     10467     10439     10465     10471     10440     10439     10441
     10440     10439     10465     10441     10439     10465     10441     10442     10443
     10441     10442     10444     10441     10442     10445     10441     10446     10447
     10441     10446     10448     10441     10446     10449     10442     10441     10446
     10443     10442     10444     10443     10442     10445     10444     10442     10445
     10446     10449     10450     10446     10449     10451     10446     10449     10452
     10447     10446     10448     10447     10446     10449     10448     10446     10449
     10449     10452     10453     10449     10452     10454     10450     10449     10451
     10450     10449     10452     10451     10449     10452     10452     10454     10455
     10452     10454     10459     10453     10452     10454     10454     10455     10456
     10454     10455     10457     10454     10455     10458     10454     10459     10460
     10454     10459     10461     10454     10459     10462     10455     10454     10459
     10456     10455     10457     10456     10455     10458     10457     10455     10458
     10459     10462     10463     10459     10462     10464     10460     10459     10461
     10460     10459     10462     10461     10459     10462     10463     10462     10464
     10465     10467     10468     10465     10467     10469     10465     10467     10470
     10465     10471     10472     10465     10471     10473     10465     10471     10474
     10466     10465     10467     10466     10465     10471     10467     10465     10471
     10468     10467     10469     10468     10467     10470     10469     10467     10470
     10471     10474     10475     10471     10474     10476     10471     10474     10477
     10472     10471     10473     10472     10471     10474     10473     10471     10474
     10474     10477     10478     10474     10477     10479     10474     10477     10480
     10475     10474     10476     10475     10474     10477     10476     10474     10477
     10477     10480     10481     10477     10480     10482     10477     10480     10486
     10478     10477     10479     10478     10477     10480     10479     10477     10480
     10480     10482     10483     10480     10482     10484     10480     10482     10485
     10480     10486     10487     10480     10486     10488     10480     10486     10489
     10481     10480     10482     10481     10480     10486     10482     10480     10486
     10483     10482     10484     10483     10482     10485     10484     10482     10485
     10487     10486     10488     10487     10486     10489     10488     10486     10489
     10490     10494     10495     10490     10494     10496     10490     10494     10497
     10491     10490     10492     10491     10490     10493     10491     10490     10494
     10492     10490     10493     10492     10490     10494     10493     10490     10494
     10494     10497     10498     10494     10497     10499     10494     10497     10503
     10495     10494     10496     10495     10494     10497     10496     10494     10497
     10497     10503     10500     10498     10497     10499     10498     10497     10503
     10499     10497     10503     10500     10504     10505     10501     10500     10502
     10501     10500     10503     10501     10500     10504     10502     10500     10503
     10502     10500     10504     10503     10500     10504     10504     10505     10506
     10504     10505     10507     10504     10505     10508     10505     10508     10509
     10505     10508     10510     10505     10508     10516     10506     10505     10507
     10506     10505     10508     10507     10505     10508     10508     10510     10511
     10508     10516     10517     10508     10516     10518     10508     10516     10519
     10509     10508     10510     10509     10508     10516     10510     10508     10516
     10510     10511     10512     10510     10511     10513     10511     10513     10514
     10511     10513     10515     10511     10513     10525     10512     10511     10513
     10513     10525     10526     10513     10525     10527     10513     10525     10528
     10514     10513     10515     10514     10513     10525     10515     10513     10525
     10516     10519     10520     10517     10516     10518     10517     10516     10519
     10518     10516     10519     10519     10520     10521     10519     10520     10522
     10520     10522     10523     10520     10522     10524     10520     10522     10572
     10521     10520     10522     10522     10572     10573     10522     10572     10574
     10522     10572     10575     10523     10522     10524     10523     10522     10572
     10524     10522     10572     10525     10528     10529     10525     10528     10530
     10525     10528     10531     10526     10525     10527     10526     10525     10528
     10527     10525     10528     10528     10531     10532     10528     10531     10533
     10528     10531     10534     10529     10528     10530     10529     10528     10531
     10530     10528     10531     10531     10534     10535     10531     10534     10536
     10531     10534     10537     10532     10531     10533     10532     10531     10534
     10533     10531     10534     10534     10537     10538     10534     10537     10539
     10534     10537     10540     10535     10534     10536     10535     10534     10537
     10536     10534     10537     10537     10540     10541     10537     10540     10542
     10537     10540     10543     10538     10537     10539     10538     10537     10540
     10539     10537     10540     10540     10543     10544     10540     10543     10545
     10541     10540     10542     10541     10540     10543     10542     10540     10543
     10543     10545     10546     10543     10545     10547     10544     10543     10545
     10545     10547     10548     10545     10547     10549     10545     10547     10550
     10546     10545     10547     10547     10550     10551     10547     10550     10552
     10547     10550     10553     10548     10547     10549     10548     10547     10550
     10549     10547     10550     10550     10553     10554     10550     10553     10555
     10550     10553     10556     10551     10550     10552     10551     10550     10553
     10552     10550     10553     10553     10556     10557     10553     10556     10558
     10553     10556     10559     10554     10553     10555     10554     10553     10556
     10555     10553     10556     10556     10559     10560     10556     10559     10561
     10556     10559     10562     10557     10556     10558     10557     10556     10559
     10558     10556     10559     10559     10562     10563     10559     10562     10564
     10559     10562     10565     10560     10559     10561     10560     10559     10562
     10561     10559     10562     10562     10565     10566     10562     10565     10567
     10562     10565     10568     10563     10562     10564     10563     10562     10565
     10564     10562     10565     10565     10568     10569     10565     10568     10570
     10565     10568     10571     10566     10565     10567     10566     10565     10568
     10567     10565     10568     10569     10568     10570     10569     10568     10571
     10570     10568     10571     10572     10575     10576     10572     10575     10577
     10572     10575     10578     10573     10572     10574     10573     10572     10575
     10574     10572     10575     10575     10578     10579     10575     10578     10580
     10575     10578     10581     10576     10575     10577     10576     10575     10578
     10577     10575     10578     10578     10581     10582     10578     10581     10583
     10578     10581     10584     10579     10578     10580     10579     10578     10581
     10580     10578     10581     10581     10584     10585     10581     10584     10586
     10581     10584     10587     10582     10581     10583     10582     10581     10584
     10583     10581     10584     10584     10587     10588     10584     10587     10589
     10584     10587     10590     10585     10584     10586     10585     10584     10587
     10586     10584     10587     10587     10590     10591     10587     10590     10592
     10587     10590     10593     10588     10587     10589     10588     10587     10590
     10589     10587     10590     10590     10593     10594     10590     10593     10595
     10590     10593     10596     10591     10590     10592     10591     10590     10593
     10592     10590     10593     10593     10596     10597     10593     10596     10598
     10593     10596     10599     10594     10593     10595     10594     10593     10596
     10595     10593     10596     10596     10599     10600     10596     10599     10601
     10596     10599     10602     10597     10596     10598     10597     10596     10599
     10598     10596     10599     10599     10602     10603     10599     10602     10604
     10599     10602     10605     10600     10599     10601     10600     10599     10602
     10601     10599     10602     10602     10605     10606     10602     10605     10607
     10602     10605     10608     10603     10602     10604     10603     10602     10605
     10604     10602     10605     10605     10608     10609     10605     10608     10610
     10605     10608     10611     10606     10605     10607     10606     10605     10608
     10607     10605     10608     10608     10611     10612     10608     10611     10613
     10608     10611     10614     10609     10608     10610     10609     10608     10611
     10610     10608     10611     10611     10614     10615     10611     10614     10616
     10611     10614     10617     10612     10611     10613     10612     10611     10614
     10613     10611     10614     10614     10617     10618     10614     10617     10619
     10614     10617     10620     10615     10614     10616     10615     10614     10617
     10616     10614     10617     10618     10617     10619     10618     10617     10620
     10619     10617     10620     10621     10625     10626     10621     10625     10627
     10621     10625     10628     10622     10621     10623     10622     10621     10624
     10622     10621     10625     10623     10621     10624     10623     10621     10625
     10624     10621     10625     10625     10628     10629     10625     10628     10630
     10625     10628     10634     10626     10625     10627     10626     10625     10628
     10627     10625     10628     10628     10634     10631     10629     10628     10630
     10629     10628     10634     10630     10628     10634     10631     10635     10636
     10632     10631     10633     10632     10631     10634     10632     10631     10635
     10633     10631     10634     10633     10631     10635     10634     10631     10635
     10635     10636     10637     10635     10636     10638     10635     10636     10639
     10636     10639     10640     10636     10639     10641     10636     10639     10647
     10637     10636     10638     10637     10636     10639     10638     10636     10639
     10639     10641     10642     10639     10647     10648     10639     10647     10649
     10639     10647     10650     10640     10639     10641     10640     10639     10647
     10641     10639     10647     10641     10642     10643     10641     10642     10644
     10642     10644     10645     10642     10644     10646     10642     10644     10656
     10643     10642     10644     10644     10656     10657     10644     10656     10658
     10644     10656     10659     10645     10644     10646     10645     10644     10656
     10646     10644     10656     10647     10650     10651     10648     10647     10649
     10648     10647     10650     10649     10647     10650     10650     10651     10652
     10650     10651     10653     10651     10653     10654     10651     10653     10655
     10651     10653     10703     10652     10651     10653     10653     10703     10704
     10653     10703     10705     10653     10703     10706     10654     10653     10655
     10654     10653     10703     10655     10653     10703     10656     10659     10660
     10656     10659     10661     10656     10659     10662     10657     10656     10658
     10657     10656     10659     10658     10656     10659     10659     10662     10663
     10659     10662     10664     10660     10659     10661     10660     10659     10662
     10661     10659     10662     10662     10664     10665     10662     10664     10666
     10663     10662     10664     10664     10666     10667     10664     10666     10668
     10664     10666     10669     10665     10664     10666     10666     10669     10670
     10666     10669     10671     10667     10666     10668     10667     10666     10669
     10668     10666     10669     10669     10671     10672     10669     10671     10673
     10670     10669     10671     10671     10673     10674     10671     10673     10675
     10671     10673     10676     10672     10671     10673     10673     10676     10677
     10673     10676     10678     10674     10673     10675     10674     10673     10676
     10675     10673     10676     10676     10678     10679     10676     10678     10680
     10677     10676     10678     10678     10680     10681     10678     10680     10682
     10678     10680     10683     10679     10678     10680     10680     10683     10684
     10680     10683     10685     10681     10680     10682     10681     10680     10683
     10682     10680     10683     10683     10685     10686     10683     10685     10687
     10684     10683     10685     10685     10687     10688     10685     10687     10689
     10685     10687     10690     10686     10685     10687     10687     10690     10691
     10687     10690     10692     10687     10690     10693     10688     10687     10689
     10688     10687     10690     10689     10687     10690     10690     10693     10694
     10690     10693     10695     10690     10693     10696     10691     10690     10692
     10691     10690     10693     10692     10690     10693     10693     10696     10697
     10693     10696     10698     10693     10696     10699     10694     10693     10695
     10694     10693     10696     10695     10693     10696     10696     10699     10700
     10696     10699     10701     10696     10699     10702     10697     10696     10698
     10697     10696     10699     10698     10696     10699     10700     10699     10701
     10700     10699     10702     10701     10699     10702     10703     10706     10707
     10703     10706     10708     10703     10706     10709     10704     10703     10705
     10704     10703     10706     10705     10703     10706     10706     10709     10710
     10706     10709     10711     10706     10709     10712     10707     10706     10708
     10707     10706     10709     10708     10706     10709     10709     10712     10713
     10709     10712     10714     10709     10712     10715     10710     10709     10711
     10710     10709     10712     10711     10709     10712     10712     10715     10716
     10712     10715     10717     10712     10715     10718     10713     10712     10714
     10713     10712     10715     10714     10712     10715     10715     10718     10719
     10715     10718     10720     10715     10718     10721     10716     10715     10717
     10716     10715     10718     10717     10715     10718     10718     10721     10722
     10718     10721     10723     10718     10721     10724     10719     10718     10720
     10719     10718     10721     10720     10718     10721     10721     10724     10725
     10721     10724     10726     10721     10724     10727     10722     10721     10723
     10722     10721     10724     10723     10721     10724     10724     10727     10728
     10724     10727     10729     10724     10727     10730     10725     10724     10726
     10725     10724     10727     10726     10724     10727     10727     10730     10731
     10727     10730     10732     10727     10730     10733     10728     10727     10729
     10728     10727     10730     10729     10727     10730     10730     10733     10734
     10730     10733     10735     10730     10733     10736     10731     10730     10732
     10731     10730     10733     10732     10730     10733     10733     10736     10737
     10733     10736     10738     10733     10736     10739     10734     10733     10735
     10734     10733     10736     10735     10733     10736     10736     10739     10740
     10736     10739     10741     10736     10739     10742     10737     10736     10738
     10737     10736     10739     10738     10736     10739     10739     10742     10743
     10739     10742     10744     10739     10742     10745     10740     10739     10741
     10740     10739     10742     10741     10739     10742     10742     10745     10746
     10742     10745     10747     10742     10745     10748     10743     10742     10744
     10743     10742     10745     10744     10742     10745     10745     10748     10749
     10745     10748     10750     10745     10748     10751     10746     10745     10747
     10746     10745     10748     10747     10745     10748     10749     10748     10750
     10749     10748     10751     10750     10748     10751     10752     10753     10754
     10752     10753     10755     10752     10753     10756     10752     10757     10758
     10752     10757     10759     10752     10757     10760     10752     10761     10762
     10752     10761     10763     10752     10761     10764     10752     10765     10766
     10752     10765     10767     10752     10765     10768     10753     10752     10757
     10753     10752     10761     10753     10752     10765     10754     10753     10755
     10754     10753     10756     10755     10753     10756     10757     10752     10761
     10757     10752     10765     10758     10757     10759     10758     10757     10760
     10759     10757     10760     10761     10752     10765     10762     10761     10763
     10762     10761     10764     10763     10761     10764     10765     10768     10769
     10765     10768     10770     10765     10768     10774     10766     10765     10767
     10766     10765     10768     10767     10765     10768     10768     10774     10771
     10769     10768     10770     10769     10768     10774     10770     10768     10774
     10771     10775     10776     10772     10771     10773     10772     10771     10774
     10772     10771     10775     10773     10771     10774     10773     10771     10775
     10774     10771     10775     10775     10776     10777     10775     10776     10778
     10775     10776     10779     10776     10779     10780     10776     10779     10781
     10776     10779     10787     10777     10776     10778     10777     10776     10779
     10778     10776     10779     10779     10781     10782     10779     10787     10788
     10779     10787     10789     10779     10787     10790     10780     10779     10781
     10780     10779     10787     10781     10779     10787     10781     10782     10783
     10781     10782     10784     10782     10784     10785     10782     10784     10786
     10782     10784     10796     10783     10782     10784     10784     10796     10797
     10784     10796     10798     10784     10796     10799     10785     10784     10786
     10785     10784     10796     10786     10784     10796     10787     10790     10791
     10788     10787     10789     10788     10787     10790     10789     10787     10790
     10790     10791     10792     10790     10791     10793     10791     10793     10794
     10791     10793     10795     10791     10793     10841     10792     10791     10793
     10793     10841     10842     10793     10841     10843     10793     10841     10844
     10794     10793     10795     10794     10793     10841     10795     10793     10841
     10796     10799     10800     10796     10799     10801     10796     10799     10802
     10797     10796     10798     10797     10796     10799     10798     10796     10799
     10799     10802     10803     10799     10802     10804     10799     10802     10805
     10800     10799     10801     10800     10799     10802     10801     10799     10802
     10802     10805     10806     10802     10805     10807     10802     10805     10808
     10803     10802     10804     10803     10802     10805     10804     10802     10805
     10805     10808     10809     10805     10808     10810     10805     10808     10811
     10806     10805     10807     10806     10805     10808     10807     10805     10808
     10808     10811     10812     10808     10811     10813     10808     10811     10814
     10809     10808     10810     10809     10808     10811     10810     10808     10811
     10811     10814     10815     10811     10814     10816     10812     10811     10813
     10812     10811     10814     10813     10811     10814     10814     10816     10817
     10814     10816     10818     10815     10814     10816     10816     10818     10819
     10816     10818     10820     10816     10818     10821     10817     10816     10818
     10818     10821     10822     10818     10821     10823     10819     10818     10820
     10819     10818     10821     10820     10818     10821     10821     10823     10824
     10821     10823     10825     10822     10821     10823     10823     10825     10826
     10823     10825     10827     10823     10825     10828     10824     10823     10825
     10825     10828     10829     10825     10828     10830     10825     10828     10831
     10826     10825     10827     10826     10825     10828     10827     10825     10828
     10828     10831     10832     10828     10831     10833     10828     10831     10834
     10829     10828     10830     10829     10828     10831     10830     10828     10831
     10831     10834     10835     10831     10834     10836     10831     10834     10837
     10832     10831     10833     10832     10831     10834     10833     10831     10834
     10834     10837     10838     10834     10837     10839     10834     10837     10840
     10835     10834     10836     10835     10834     10837     10836     10834     10837
     10838     10837     10839     10838     10837     10840     10839     10837     10840
     10841     10844     10845     10841     10844     10846     10841     10844     10847
     10842     10841     10843     10842     10841     10844     10843     10841     10844
     10844     10847     10848     10844     10847     10849     10844     10847     10850
     10845     10844     10846     10845     10844     10847     10846     10844     10847
     10847     10850     10851     10847     10850     10852     10847     10850     10853
     10848     10847     10849     10848     10847     10850     10849     10847     10850
     10850     10853     10854     10850     10853     10855     10850     10853     10856
     10851     10850     10852     10851     10850     10853     10852     10850     10853
     10853     10856     10857     10853     10856     10858     10853     10856     10859
     10854     10853     10855     10854     10853     10856     10855     10853     10856
     10856     10859     10860     10856     10859     10861     10856     10859     10862
     10857     10856     10858     10857     10856     10859     10858     10856     10859
     10859     10862     10863     10859     10862     10864     10859     10862     10865
     10860     10859     10861     10860     10859     10862     10861     10859     10862
     10862     10865     10866     10862     10865     10867     10862     10865     10868
     10863     10862     10864     10863     10862     10865     10864     10862     10865
     10865     10868     10869     10865     10868     10870     10865     10868     10871
     10866     10865     10867     10866     10865     10868     10867     10865     10868
     10868     10871     10872     10868     10871     10873     10868     10871     10874
     10869     10868     10870     10869     10868     10871     10870     10868     10871
     10871     10874     10875     10871     10874     10876     10871     10874     10877
     10872     10871     10873     10872     10871     10874     10873     10871     10874
     10874     10877     10878     10874     10877     10879     10874     10877     10880
     10875     10874     10876     10875     10874     10877     10876     10874     10877
     10877     10880     10881     10877     10880     10882     10877     10880     10883
     10878     10877     10879     10878     10877     10880     10879     10877     10880
     10880     10883     10884     10880     10883     10885     10880     10883     10886
     10881     10880     10882     10881     10880     10883     10882     10880     10883
     10883     10886     10887     10883     10886     10888     10883     10886     10889
     10884     10883     10885     10884     10883     10886     10885     10883     10886
     10887     10886     10888     10887     10886     10889     10888     10886     10889
     10890     10891     10892     10890     10891     10893     10890     10891     10906
     10890     10894     10895     10890     10894     10896     10890     10894     10897
     10890     10898     10899     10890     10898     10900     10890     10898     10901
     10890     10902     10903     10890     10902     10904     10890     10902     10905
     10891     10890     10894     10891     10890     10898     10891     10890     10902
     10891     10906     10907     10891     10906     10908     10891     10906     10912
     10892     10891     10893     10892     10891     10906     10893     10891     10906
     10894     10890     10898     10894     10890     10902     10895     10894     10896
     10895     10894     10897     10896     10894     10897     10898     10890     10902
     10899     10898     10900     10899     10898     10901     10900     10898     10901
     10903     10902     10904     10903     10902     10905     10904     10902     10905
     10906     10912     10909     10907     10906     10908     10907     10906     10912
     10908     10906     10912     10909     10913     10914     10910     10909     10911
     10910     10909     10912     10910     10909     10913     10911     10909     10912
     10911     10909     10913     10912     10909     10913     10913     10914     10915
     10913     10914     10916     10913     10914     10917     10914     10917     10918
     10914     10917     10919     10914     10917     10925     10915     10914     10916
     10915     10914     10917     10916     10914     10917     10917     10919     10920
     10917     10925     10926     10917     10925     10927     10917     10925     10928
     10918     10917     10919     10918     10917     10925     10919     10917     10925
     10919     10920     10921     10919     10920     10922     10920     10922     10923
     10920     10922     10924     10920     10922     10934     10921     10920     10922
     10922     10934     10935     10922     10934     10936     10922     10934     10937
     10923     10922     10924     10923     10922     10934     10924     10922     10934
     10925     10928     10929     10926     10925     10927     10926     10925     10928
     10927     10925     10928     10928     10929     10930     10928     10929     10931
     10929     10931     10932     10929     10931     10933     10929     10931     10981
     10930     10929     10931     10931     10981     10982     10931     10981     10983
     10931     10981     10984     10932     10931     10933     10932     10931     10981
     10933     10931     10981     10934     10937     10938     10934     10937     10939
     10934     10937     10940     10935     10934     10936     10935     10934     10937
     10936     10934     10937     10937     10940     10941     10937     10940     10942
     10938     10937     10939     10938     10937     10940     10939     10937     10940
     10940     10942     10943     10940     10942     10944     10941     10940     10942
     10942     10944     10945     10942     10944     10946     10942     10944     10947
     10943     10942     10944     10944     10947     10948     10944     10947     10949
     10945     10944     10946     10945     10944     10947     10946     10944     10947
     10947     10949     10950     10947     10949     10951     10948     10947     10949
     10949     10951     10952     10949     10951     10953     10949     10951     10954
     10950     10949     10951     10951     10954     10955     10951     10954     10956
     10952     10951     10953     10952     10951     10954     10953     10951     10954
     10954     10956     10957     10954     10956     10958     10955     10954     10956
     10956     10958     10959     10956     10958     10960     10956     10958     10961
     10957     10956     10958     10958     10961     10962     10958     10961     10963
     10959     10958     10960     10959     10958     10961     10960     10958     10961
     10961     10963     10964     10961     10963     10965     10962     10961     10963
     10963     10965     10966     10963     10965     10967     10963     10965     10968
     10964     10963     10965     10965     10968     10969     10965     10968     10970
     10965     10968     10971     10966     10965     10967     10966     10965     10968
     10967     10965     10968     10968     10971     10972     10968     10971     10973
     10968     10971     10974     10969     10968     10970     10969     10968     10971
     10970     10968     10971     10971     10974     10975     10971     10974     10976
     10971     10974     10977     10972     10971     10973     10972     10971     10974
     10973     10971     10974     10974     10977     10978     10974     10977     10979
     10974     10977     10980     10975     10974     10976     10975     10974     10977
     10976     10974     10977     10978     10977     10979     10978     10977     10980
     10979     10977     10980     10981     10984     10985     10981     10984     10986
     10981     10984     10987     10982     10981     10983     10982     10981     10984
     10983     10981     10984     10984     10987     10988     10984     10987     10989
     10984     10987     10990     10985     10984     10986     10985     10984     10987
     10986     10984     10987     10987     10990     10991     10987     10990     10992
     10987     10990     10993     10988     10987     10989     10988     10987     10990
     10989     10987     10990     10990     10993     10994     10990     10993     10995
     10990     10993     10996     10991     10990     10992     10991     10990     10993
     10992     10990     10993     10993     10996     10997     10993     10996     10998
     10993     10996     10999     10994     10993     10995     10994     10993     10996
     10995     10993     10996     10996     10999     11000     10996     10999     11001
     10996     10999     11002     10997     10996     10998     10997     10996     10999
     10998     10996     10999     10999     11002     11003     10999     11002     11004
     10999     11002     11005     11000     10999     11001     11000     10999     11002
     11001     10999     11002     11002     11005     11006     11002     11005     11007
     11002     11005     11008     11003     11002     11004     11003     11002     11005
     11004     11002     11005     11005     11008     11009     11005     11008     11010
     11005     11008     11011     11006     11005     11007     11006     11005     11008
     11007     11005     11008     11008     11011     11012     11008     11011     11013
     11008     11011     11014     11009     11008     11010     11009     11008     11011
     11010     11008     11011     11011     11014     11015     11011     11014     11016
     11011     11014     11017     11012     11011     11013     11012     11011     11014
     11013     11011     11014     11014     11017     11018     11014     11017     11019
     11014     11017     11020     11015     11014     11016     11015     11014     11017
     11016     11014     11017     11017     11020     11021     11017     11020     11022
     11017     11020     11023     11018     11017     11019     11018     11017     11020
     11019     11017     11020     11020     11023     11024     11020     11023     11025
     11020     11023     11026     11021     11020     11022     11021     11020     11023
     11022     11020     11023     11023     11026     11027     11023     11026     11028
     11023     11026     11029     11024     11023     11025     11024     11023     11026
     11025     11023     11026     11027     11026     11028     11027     11026     11029
     11028     11026     11029     11030     11031     11032     11030     11031     11033
     11030     11031     11034     11030     11035     11036     11030     11035     11037
     11030     11035     11038     11030     11039     11040     11030     11039     11041
     11030     11039     11042     11030     11043     11044     11030     11043     11045
     11030     11043     11046     11031     11030     11035     11031     11030     11039
     11031     11030     11043     11032     11031     11033     11032     11031     11034
     11033     11031     11034     11035     11030     11039     11035     11030     11043
     11036     11035     11037     11036     11035     11038     11037     11035     11038
     11039     11030     11043     11040     11039     11041     11040     11039     11042
     11041     11039     11042     11043     11046     11047     11043     11046     11048
     11043     11046     11053     11044     11043     11045     11044     11043     11046
     11045     11043     11046     11046     11053     11049     11047     11046     11048
     11047     11046     11053     11048     11046     11053     11049     11052     11054
     11050     11049     11051     11050     11049     11052     11050     11049     11053
     11051     11049     11052     11051     11049     11053     11052     11049     11053
     11052     11054     11055     11052     11054     11056     11052     11054     11059
     11054     11059     11057     11054     11059     11060     11054     11059     11061
     11055     11054     11056     11055     11054     11059     11056     11054     11059
     11057     11059     11060     11057     11059     11061     11057     11109     11110
     11057     11109     11111     11058     11057     11059     11058     11057     11109
     11059     11057     11109     11059     11061     11062     11059     11061     11063
     11059     11061     11065     11060     11059     11061     11061     11063     11064
     11061     11065     11066     11061     11065     11067     11062     11061     11063
     11062     11061     11065     11063     11061     11065     11065     11067     11068
     11065     11067     11069     11066     11065     11067     11067     11069     11070
     11067     11069     11071     11067     11069     11072     11068     11067     11069
     11069     11072     11073     11069     11072     11074     11069     11072     11075
     11070     11069     11071     11070     11069     11072     11071     11069     11072
     11072     11075     11076     11072     11075     11077     11072     11075     11078
     11073     11072     11074     11073     11072     11075     11074     11072     11075
     11075     11078     11079     11075     11078     11080     11075     11078     11081
     11076     11075     11077     11076     11075     11078     11077     11075     11078
     11078     11081     11082     11078     11081     11083     11078     11081     11084
     11079     11078     11080     11079     11078     11081     11080     11078     11081
     11081     11084     11085     11081     11084     11086     11081     11084     11087
     11082     11081     11083     11082     11081     11084     11083     11081     11084
     11084     11087     11088     11084     11087     11089     11084     11087     11090
     11085     11084     11086     11085     11084     11087     11086     11084     11087
     11087     11090     11091     11087     11090     11092     11087     11090     11093
     11088     11087     11089     11088     11087     11090     11089     11087     11090
     11090     11093     11094     11090     11093     11095     11090     11093     11096
     11091     11090     11092     11091     11090     11093     11092     11090     11093
     11093     11096     11097     11093     11096     11098     11093     11096     11099
     11094     11093     11095     11094     11093     11096     11095     11093     11096
     11096     11099     11100     11096     11099     11101     11096     11099     11102
     11097     11096     11098     11097     11096     11099     11098     11096     11099
     11099     11102     11103     11099     11102     11104     11099     11102     11105
     11100     11099     11101     11100     11099     11102     11101     11099     11102
     11102     11105     11106     11102     11105     11107     11102     11105     11108
     11103     11102     11104     11103     11102     11105     11104     11102     11105
     11106     11105     11107     11106     11105     11108     11107     11105     11108
     11109     11111     11112     11109     11111     11113     11109     11111     11114
     11110     11109     11111     11111     11114     11115     11111     11114     11116
     11111     11114     11117     11112     11111     11113     11112     11111     11114
     11113     11111     11114     11114     11117     11118     11114     11117     11119
     11114     11117     11120     11115     11114     11116     11115     11114     11117
     11116     11114     11117     11117     11120     11121     11117     11120     11122
     11117     11120     11123     11118     11117     11119     11118     11117     11120
     11119     11117     11120     11120     11123     11124     11120     11123     11125
     11120     11123     11126     11121     11120     11122     11121     11120     11123
     11122     11120     11123     11123     11126     11127     11123     11126     11128
     11123     11126     11129     11124     11123     11125     11124     11123     11126
     11125     11123     11126     11126     11129     11130     11126     11129     11131
     11126     11129     11132     11127     11126     11128     11127     11126     11129
     11128     11126     11129     11129     11132     11133     11129     11132     11134
     11130     11129     11131     11130     11129     11132     11131     11129     11132
     11132     11134     11135     11132     11134     11136     11133     11132     11134
     11134     11136     11137     11134     11136     11138     11134     11136     11139
     11135     11134     11136     11136     11139     11140     11136     11139     11141
     11136     11139     11142     11137     11136     11138     11137     11136     11139
     11138     11136     11139     11139     11142     11143     11139     11142     11144
     11139     11142     11145     11140     11139     11141     11140     11139     11142
     11141     11139     11142     11142     11145     11146     11142     11145     11147
     11142     11145     11148     11143     11142     11144     11143     11142     11145
     11144     11142     11145     11145     11148     11149     11145     11148     11150
     11145     11148     11151     11146     11145     11147     11146     11145     11148
     11147     11145     11148     11148     11151     11152     11148     11151     11153
     11148     11151     11154     11149     11148     11150     11149     11148     11151
     11150     11148     11151     11151     11154     11155     11151     11154     11156
     11151     11154     11157     11152     11151     11153     11152     11151     11154
     11153     11151     11154     11154     11157     11158     11154     11157     11159
     11154     11157     11160     11155     11154     11156     11155     11154     11157
     11156     11154     11157     11158     11157     11159     11158     11157     11160
     11159     11157     11160     11161     11165     11166     11161     11165     11167
     11161     11165     11168     11162     11161     11163     11162     11161     11164
     11162     11161     11165     11163     11161     11164     11163     11161     11165
     11164     11161     11165     11165     11168     11169     11165     11168     11170
     11165     11168     11174     11166     11165     11167     11166     11165     11168
     11167     11165     11168     11168     11174     11171     11169     11168     11170
     11169     11168     11174     11170     11168     11174     11171     11175     11176
     11172     11171     11173     11172     11171     11174     11172     11171     11175
     11173     11171     11174     11173     11171     11175     11174     11171     11175
     11175     11176     11177     11175     11176     11178     11175     11176     11179
     11176     11179     11180     11176     11179     11181     11176     11179     11187
     11177     11176     11178     11177     11176     11179     11178     11176     11179
     11179     11181     11182     11179     11187     11188     11179     11187     11189
     11179     11187     11190     11180     11179     11181     11180     11179     11187
     11181     11179     11187     11181     11182     11183     11181     11182     11184
     11182     11184     11185     11182     11184     11186     11182     11184     11196
     11183     11182     11184     11184     11196     11197     11184     11196     11198
     11184     11196     11199     11185     11184     11186     11185     11184     11196
     11186     11184     11196     11187     11190     11191     11188     11187     11189
     11188     11187     11190     11189     11187     11190     11190     11191     11192
     11190     11191     11193     11191     11193     11194     11191     11193     11195
     11191     11193     11243     11192     11191     11193     11193     11243     11244
     11193     11243     11245     11193     11243     11246     11194     11193     11195
     11194     11193     11243     11195     11193     11243     11196     11199     11200
     11196     11199     11201     11196     11199     11202     11197     11196     11198
     11197     11196     11199     11198     11196     11199     11199     11202     11203
     11199     11202     11204     11200     11199     11201     11200     11199     11202
     11201     11199     11202     11202     11204     11205     11202     11204     11206
     11203     11202     11204     11204     11206     11207     11204     11206     11208
     11204     11206     11209     11205     11204     11206     11206     11209     11210
     11206     11209     11211     11207     11206     11208     11207     11206     11209
     11208     11206     11209     11209     11211     11212     11209     11211     11213
     11210     11209     11211     11211     11213     11214     11211     11213     11215
     11211     11213     11216     11212     11211     11213     11213     11216     11217
     11213     11216     11218     11214     11213     11215     11214     11213     11216
     11215     11213     11216     11216     11218     11219     11216     11218     11220
     11217     11216     11218     11218     11220     11221     11218     11220     11222
     11218     11220     11223     11219     11218     11220     11220     11223     11224
     11220     11223     11225     11221     11220     11222     11221     11220     11223
     11222     11220     11223     11223     11225     11226     11223     11225     11227
     11224     11223     11225     11225     11227     11228     11225     11227     11229
     11225     11227     11230     11226     11225     11227     11227     11230     11231
     11227     11230     11232     11227     11230     11233     11228     11227     11229
     11228     11227     11230     11229     11227     11230     11230     11233     11234
     11230     11233     11235     11230     11233     11236     11231     11230     11232
     11231     11230     11233     11232     11230     11233     11233     11236     11237
     11233     11236     11238     11233     11236     11239     11234     11233     11235
     11234     11233     11236     11235     11233     11236     11236     11239     11240
     11236     11239     11241     11236     11239     11242     11237     11236     11238
     11237     11236     11239     11238     11236     11239     11240     11239     11241
     11240     11239     11242     11241     11239     11242     11243     11246     11247
     11243     11246     11248     11243     11246     11249     11244     11243     11245
     11244     11243     11246     11245     11243     11246     11246     11249     11250
     11246     11249     11251     11246     11249     11252     11247     11246     11248
     11247     11246     11249     11248     11246     11249     11249     11252     11253
     11249     11252     11254     11249     11252     11255     11250     11249     11251
     11250     11249     11252     11251     11249     11252     11252     11255     11256
     11252     11255     11257     11252     11255     11258     11253     11252     11254
     11253     11252     11255     11254     11252     11255     11255     11258     11259
     11255     11258     11260     11255     11258     11261     11256     11255     11257
     11256     11255     11258     11257     11255     11258     11258     11261     11262
     11258     11261     11263     11258     11261     11264     11259     11258     11260
     11259     11258     11261     11260     11258     11261     11261     11264     11265
     11261     11264     11266     11261     11264     11267     11262     11261     11263
     11262     11261     11264     11263     11261     11264     11264     11267     11268
     11264     11267     11269     11264     11267     11270     11265     11264     11266
     11265     11264     11267     11266     11264     11267     11267     11270     11271
     11267     11270     11272     11267     11270     11273     11268     11267     11269
     11268     11267     11270     11269     11267     11270     11270     11273     11274
     11270     11273     11275     11270     11273     11276     11271     11270     11272
     11271     11270     11273     11272     11270     11273     11273     11276     11277
     11273     11276     11278     11273     11276     11279     11274     11273     11275
     11274     11273     11276     11275     11273     11276     11276     11279     11280
     11276     11279     11281     11276     11279     11282     11277     11276     11278
     11277     11276     11279     11278     11276     11279     11279     11282     11283
     11279     11282     11284     11279     11282     11285     11280     11279     11281
     11280     11279     11282     11281     11279     11282     11282     11285     11286
     11282     11285     11287     11282     11285     11288     11283     11282     11284
     11283     11282     11285     11284     11282     11285     11285     11288     11289
     11285     11288     11290     11285     11288     11291     11286     11285     11287
     11286     11285     11288     11287     11285     11288     11289     11288     11290
     11289     11288     11291     11290     11288     11291     11292     11296     11297
     11292     11296     11298     11292     11296     11299     11293     11292     11294
     11293     11292     11295     11293     11292     11296     11294     11292     11295
     11294     11292     11296     11295     11292     11296     11296     11299     11300
     11296     11299     11301     11296     11299     11305     11297     11296     11298
     11297     11296     11299     11298     11296     11299     11299     11305     11302
     11300     11299     11301     11300     11299     11305     11301     11299     11305
     11302     11306     11307     11303     11302     11304     11303     11302     11305
     11303     11302     11306     11304     11302     11305     11304     11302     11306
     11305     11302     11306     11306     11307     11308     11306     11307     11309
     11306     11307     11310     11307     11310     11311     11307     11310     11312
     11307     11310     11318     11308     11307     11309     11308     11307     11310
     11309     11307     11310     11310     11312     11313     11310     11318     11319
     11310     11318     11320     11310     11318     11321     11311     11310     11312
     11311     11310     11318     11312     11310     11318     11312     11313     11314
     11312     11313     11315     11313     11315     11316     11313     11315     11317
     11313     11315     11327     11314     11313     11315     11315     11327     11328
     11315     11327     11329     11315     11327     11330     11316     11315     11317
     11316     11315     11327     11317     11315     11327     11318     11321     11322
     11319     11318     11320     11319     11318     11321     11320     11318     11321
     11321     11322     11323     11321     11322     11324     11322     11324     11325
     11322     11324     11326     11322     11324     11374     11323     11322     11324
     11324     11374     11375     11324     11374     11376     11324     11374     11377
     11325     11324     11326     11325     11324     11374     11326     11324     11374
     11327     11330     11331     11327     11330     11332     11327     11330     11333
     11328     11327     11329     11328     11327     11330     11329     11327     11330
     11330     11333     11334     11330     11333     11335     11331     11330     11332
     11331     11330     11333     11332     11330     11333     11333     11335     11336
     11333     11335     11337     11334     11333     11335     11335     11337     11338
     11335     11337     11339     11335     11337     11340     11336     11335     11337
     11337     11340     11341     11337     11340     11342     11338     11337     11339
     11338     11337     11340     11339     11337     11340     11340     11342     11343
     11340     11342     11344     11341     11340     11342     11342     11344     11345
     11342     11344     11346     11342     11344     11347     11343     11342     11344
     11344     11347     11348     11344     11347     11349     11345     11344     11346
     11345     11344     11347     11346     11344     11347     11347     11349     11350
     11347     11349     11351     11348     11347     11349     11349     11351     11352
     11349     11351     11353     11349     11351     11354     11350     11349     11351
     11351     11354     11355     11351     11354     11356     11352     11351     11353
     11352     11351     11354     11353     11351     11354     11354     11356     11357
     11354     11356     11358     11355     11354     11356     11356     11358     11359
     11356     11358     11360     11356     11358     11361     11357     11356     11358
     11358     11361     11362     11358     11361     11363     11358     11361     11364
     11359     11358     11360     11359     11358     11361     11360     11358     11361
     11361     11364     11365     11361     11364     11366     11361     11364     11367
     11362     11361     11363     11362     11361     11364     11363     11361     11364
     11364     11367     11368     11364     11367     11369     11364     11367     11370
     11365     11364     11366     11365     11364     11367     11366     11364     11367
     11367     11370     11371     11367     11370     11372     11367     11370     11373
     11368     11367     11369     11368     11367     11370     11369     11367     11370
     11371     11370     11372     11371     11370     11373     11372     11370     11373
     11374     11377     11378     11374     11377     11379     11374     11377     11380
     11375     11374     11376     11375     11374     11377     11376     11374     11377
     11377     11380     11381     11377     11380     11382     11377     11380     11383
     11378     11377     11379     11378     11377     11380     11379     11377     11380
     11380     11383     11384     11380     11383     11385     11380     11383     11386
     11381     11380     11382     11381     11380     11383     11382     11380     11383
     11383     11386     11387     11383     11386     11388     11383     11386     11389
     11384     11383     11385     11384     11383     11386     11385     11383     11386
     11386     11389     11390     11386     11389     11391     11386     11389     11392
     11387     11386     11388     11387     11386     11389     11388     11386     11389
     11389     11392     11393     11389     11392     11394     11389     11392     11395
     11390     11389     11391     11390     11389     11392     11391     11389     11392
     11392     11395     11396     11392     11395     11397     11392     11395     11398
     11393     11392     11394     11393     11392     11395     11394     11392     11395
     11395     11398     11399     11395     11398     11400     11395     11398     11401
     11396     11395     11397     11396     11395     11398     11397     11395     11398
     11398     11401     11402     11398     11401     11403     11398     11401     11404
     11399     11398     11400     11399     11398     11401     11400     11398     11401
     11401     11404     11405     11401     11404     11406     11401     11404     11407
     11402     11401     11403     11402     11401     11404     11403     11401     11404
     11404     11407     11408     11404     11407     11409     11404     11407     11410
     11405     11404     11406     11405     11404     11407     11406     11404     11407
     11407     11410     11411     11407     11410     11412     11407     11410     11413
     11408     11407     11409     11408     11407     11410     11409     11407     11410
     11410     11413     11414     11410     11413     11415     11410     11413     11416
     11411     11410     11412     11411     11410     11413     11412     11410     11413
     11413     11416     11417     11413     11416     11418     11413     11416     11419
     11414     11413     11415     11414     11413     11416     11415     11413     11416
     11416     11419     11420     11416     11419     11421     11416     11419     11422
     11417     11416     11418     11417     11416     11419     11418     11416     11419
     11420     11419     11421     11420     11419     11422     11421     11419     11422
     11423     11427     11428     11423     11427     11429     11423     11427     11430
     11424     11423     11425     11424     11423     11426     11424     11423     11427
     11425     11423     11426     11425     11423     11427     11426     11423     11427
     11427     11430     11431     11427     11430     11432     11427     11430     11436
     11428     11427     11429     11428     11427     11430     11429     11427     11430
     11430     11436     11433     11431     11430     11432     11431     11430     11436
     11432     11430     11436     11433     11437     11438     11434     11433     11435
     11434     11433     11436     11434     11433     11437     11435     11433     11436
     11435     11433     11437     11436     11433     11437     11437     11438     11439
     11437     11438     11440     11437     11438     11441     11438     11441     11442
     11438     11441     11443     11438     11441     11449     11439     11438     11440
     11439     11438     11441     11440     11438     11441     11441     11443     11444
     11441     11449     11450     11441     11449     11451     11441     11449     11452
     11442     11441     11443     11442     11441     11449     11443     11441     11449
     11443     11444     11445     11443     11444     11446     11444     11446     11447
     11444     11446     11448     11444     11446     11458     11445     11444     11446
     11446     11458     11459     11446     11458     11460     11446     11458     11461
     11447     11446     11448     11447     11446     11458     11448     11446     11458
     11449     11452     11453     11450     11449     11451     11450     11449     11452
     11451     11449     11452     11452     11453     11454     11452     11453     11455
     11453     11455     11456     11453     11455     11457     11453     11455     11505
     11454     11453     11455     11455     11505     11506     11455     11505     11507
     11455     11505     11508     11456     11455     11457     11456     11455     11505
     11457     11455     11505     11458     11461     11462     11458     11461     11463
     11458     11461     11464     11459     11458     11460     11459     11458     11461
     11460     11458     11461     11461     11464     11465     11461     11464     11466
     11462     11461     11463     11462     11461     11464     11463     11461     11464
     11464     11466     11467     11464     11466     11468     11465     11464     11466
     11466     11468     11469     11466     11468     11470     11466     11468     11471
     11467     11466     11468     11468     11471     11472     11468     11471     11473
     11469     11468     11470     11469     11468     11471     11470     11468     11471
     11471     11473     11474     11471     11473     11475     11472     11471     11473
     11473     11475     11476     11473     11475     11477     11473     11475     11478
     11474     11473     11475     11475     11478     11479     11475     11478     11480
     11476     11475     11477     11476     11475     11478     11477     11475     11478
     11478     11480     11481     11478     11480     11482     11479     11478     11480
     11480     11482     11483     11480     11482     11484     11480     11482     11485
     11481     11480     11482     11482     11485     11486     11482     11485     11487
     11483     11482     11484     11483     11482     11485     11484     11482     11485
     11485     11487     11488     11485     11487     11489     11486     11485     11487
     11487     11489     11490     11487     11489     11491     11487     11489     11492
     11488     11487     11489     11489     11492     11493     11489     11492     11494
     11489     11492     11495     11490     11489     11491     11490     11489     11492
     11491     11489     11492     11492     11495     11496     11492     11495     11497
     11492     11495     11498     11493     11492     11494     11493     11492     11495
     11494     11492     11495     11495     11498     11499     11495     11498     11500
     11495     11498     11501     11496     11495     11497     11496     11495     11498
     11497     11495     11498     11498     11501     11502     11498     11501     11503
     11498     11501     11504     11499     11498     11500     11499     11498     11501
     11500     11498     11501     11502     11501     11503     11502     11501     11504
     11503     11501     11504     11505     11508     11509     11505     11508     11510
     11505     11508     11511     11506     11505     11507     11506     11505     11508
     11507     11505     11508     11508     11511     11512     11508     11511     11513
     11508     11511     11514     11509     11508     11510     11509     11508     11511
     11510     11508     11511     11511     11514     11515     11511     11514     11516
     11511     11514     11517     11512     11511     11513     11512     11511     11514
     11513     11511     11514     11514     11517     11518     11514     11517     11519
     11514     11517     11520     11515     11514     11516     11515     11514     11517
     11516     11514     11517     11517     11520     11521     11517     11520     11522
     11517     11520     11523     11518     11517     11519     11518     11517     11520
     11519     11517     11520     11520     11523     11524     11520     11523     11525
     11520     11523     11526     11521     11520     11522     11521     11520     11523
     11522     11520     11523     11523     11526     11527     11523     11526     11528
     11523     11526     11529     11524     11523     11525     11524     11523     11526
     11525     11523     11526     11526     11529     11530     11526     11529     11531
     11526     11529     11532     11527     11526     11528     11527     11526     11529
     11528     11526     11529     11529     11532     11533     11529     11532     11534
     11529     11532     11535     11530     11529     11531     11530     11529     11532
     11531     11529     11532     11532     11535     11536     11532     11535     11537
     11532     11535     11538     11533     11532     11534     11533     11532     11535
     11534     11532     11535     11535     11538     11539     11535     11538     11540
     11535     11538     11541     11536     11535     11537     11536     11535     11538
     11537     11535     11538     11538     11541     11542     11538     11541     11543
     11538     11541     11544     11539     11538     11540     11539     11538     11541
     11540     11538     11541     11541     11544     11545     11541     11544     11546
     11541     11544     11547     11542     11541     11543     11542     11541     11544
     11543     11541     11544     11544     11547     11548     11544     11547     11549
     11544     11547     11550     11545     11544     11546     11545     11544     11547
     11546     11544     11547     11547     11550     11551     11547     11550     11552
     11547     11550     11553     11548     11547     11549     11548     11547     11550
     11549     11547     11550     11551     11550     11552     11551     11550     11553
     11552     11550     11553     11554     11558     11559     11554     11558     11560
     11554     11558     11563     11555     11554     11556     11555     11554     11557
     11555     11554     11558     11556     11554     11557     11556     11554     11558
     11557     11554     11558     11558     11560     11561     11558     11560     11562
     11558     11563     11564     11558     11563     11565     11558     11563     11569
     11559     11558     11560     11559     11558     11563     11560     11558     11563
     11561     11560     11562     11563     11569     11566     11564     11563     11565
     11564     11563     11569     11565     11563     11569     11566     11570     11571
     11567     11566     11568     11567     11566     11569     11567     11566     11570
     11568     11566     11569     11568     11566     11570     11569     11566     11570
     11570     11571     11572     11570     11571     11573     11570     11571     11574
     11571     11574     11575     11571     11574     11576     11571     11574     11582
     11572     11571     11573     11572     11571     11574     11573     11571     11574
     11574     11576     11577     11574     11582     11583     11574     11582     11584
     11574     11582     11585     11575     11574     11576     11575     11574     11582
     11576     11574     11582     11576     11577     11578     11576     11577     11579
     11577     11579     11580     11577     11579     11581     11577     11579     11591
     11578     11577     11579     11579     11591     11592     11579     11591     11593
     11579     11591     11594     11580     11579     11581     11580     11579     11591
     11581     11579     11591     11582     11585     11586     11583     11582     11584
     11583     11582     11585     11584     11582     11585     11585     11586     11587
     11585     11586     11588     11586     11588     11589     11586     11588     11590
     11586     11588     11638     11587     11586     11588     11588     11638     11639
     11588     11638     11640     11588     11638     11641     11589     11588     11590
     11589     11588     11638     11590     11588     11638     11591     11594     11595
     11591     11594     11596     11591     11594     11597     11592     11591     11593
     11592     11591     11594     11593     11591     11594     11594     11597     11598
     11594     11597     11599     11595     11594     11596     11595     11594     11597
     11596     11594     11597     11597     11599     11600     11597     11599     11601
     11598     11597     11599     11599     11601     11602     11599     11601     11603
     11599     11601     11604     11600     11599     11601     11601     11604     11605
     11601     11604     11606     11602     11601     11603     11602     11601     11604
     11603     11601     11604     11604     11606     11607     11604     11606     11608
     11605     11604     11606     11606     11608     11609     11606     11608     11610
     11606     11608     11611     11607     11606     11608     11608     11611     11612
     11608     11611     11613     11609     11608     11610     11609     11608     11611
     11610     11608     11611     11611     11613     11614     11611     11613     11615
     11612     11611     11613     11613     11615     11616     11613     11615     11617
     11613     11615     11618     11614     11613     11615     11615     11618     11619
     11615     11618     11620     11616     11615     11617     11616     11615     11618
     11617     11615     11618     11618     11620     11621     11618     11620     11622
     11619     11618     11620     11620     11622     11623     11620     11622     11624
     11620     11622     11625     11621     11620     11622     11622     11625     11626
     11622     11625     11627     11622     11625     11628     11623     11622     11624
     11623     11622     11625     11624     11622     11625     11625     11628     11629
     11625     11628     11630     11625     11628     11631     11626     11625     11627
     11626     11625     11628     11627     11625     11628     11628     11631     11632
     11628     11631     11633     11628     11631     11634     11629     11628     11630
     11629     11628     11631     11630     11628     11631     11631     11634     11635
     11631     11634     11636     11631     11634     11637     11632     11631     11633
     11632     11631     11634     11633     11631     11634     11635     11634     11636
     11635     11634     11637     11636     11634     11637     11638     11641     11642
     11638     11641     11643     11638     11641     11644     11639     11638     11640
     11639     11638     11641     11640     11638     11641     11641     11644     11645
     11641     11644     11646     11641     11644     11647     11642     11641     11643
     11642     11641     11644     11643     11641     11644     11644     11647     11648
     11644     11647     11649     11644     11647     11650     11645     11644     11646
     11645     11644     11647     11646     11644     11647     11647     11650     11651
     11647     11650     11652     11647     11650     11653     11648     11647     11649
     11648     11647     11650     11649     11647     11650     11650     11653     11654
     11650     11653     11655     11650     11653     11656     11651     11650     11652
     11651     11650     11653     11652     11650     11653     11653     11656     11657
     11653     11656     11658     11653     11656     11659     11654     11653     11655
     11654     11653     11656     11655     11653     11656     11656     11659     11660
     11656     11659     11661     11656     11659     11662     11657     11656     11658
     11657     11656     11659     11658     11656     11659     11659     11662     11663
     11659     11662     11664     11659     11662     11665     11660     11659     11661
     11660     11659     11662     11661     11659     11662     11662     11665     11666
     11662     11665     11667     11662     11665     11668     11663     11662     11664
     11663     11662     11665     11664     11662     11665     11665     11668     11669
     11665     11668     11670     11665     11668     11671     11666     11665     11667
     11666     11665     11668     11667     11665     11668     11668     11671     11672
     11668     11671     11673     11668     11671     11674     11669     11668     11670
     11669     11668     11671     11670     11668     11671     11671     11674     11675
     11671     11674     11676     11671     11674     11677     11672     11671     11673
     11672     11671     11674     11673     11671     11674     11674     11677     11678
     11674     11677     11679     11674     11677     11680     11675     11674     11676
     11675     11674     11677     11676     11674     11677     11677     11680     11681
     11677     11680     11682     11677     11680     11683     11678     11677     11679
     11678     11677     11680     11679     11677     11680     11680     11683     11684
     11680     11683     11685     11680     11683     11686     11681     11680     11682
     11681     11680     11683     11682     11680     11683     11684     11683     11685
     11684     11683     11686     11685     11683     11686     11687     11688     11689
     11687     11688     11690     11687     11688     11691     11687     11692     11693
     11687     11692     11694     11687     11692     11695     11687     11696     11697
     11687     11696     11698     11687     11696     11699     11687     11700     11701
     11687     11700     11702     11687     11700     11703     11688     11687     11692
     11688     11687     11696     11688     11687     11700     11689     11688     11690
     11689     11688     11691     11690     11688     11691     11692     11687     11696
     11692     11687     11700     11693     11692     11694     11693     11692     11695
     11694     11692     11695     11696     11687     11700     11697     11696     11698
     11697     11696     11699     11698     11696     11699     11700     11703     11704
     11700     11703     11705     11700     11703     11710     11701     11700     11702
     11701     11700     11703     11702     11700     11703     11703     11710     11706
     11704     11703     11705     11704     11703     11710     11705     11703     11710
     11706     11709     11711     11707     11706     11708     11707     11706     11709
     11707     11706     11710     11708     11706     11709     11708     11706     11710
     11709     11706     11710     11709     11711     11712     11709     11711     11713
     11709     11711     11716     11711     11716     11714     11711     11716     11717
     11711     11716     11718     11712     11711     11713     11712     11711     11716
     11713     11711     11716     11714     11716     11717     11714     11716     11718
     11714     11766     11767     11714     11766     11768     11715     11714     11716
     11715     11714     11766     11716     11714     11766     11716     11718     11719
     11716     11718     11720     11716     11718     11722     11717     11716     11718
     11718     11720     11721     11718     11722     11723     11718     11722     11724
     11719     11718     11720     11719     11718     11722     11720     11718     11722
     11722     11724     11725     11722     11724     11726     11723     11722     11724
     11724     11726     11727     11724     11726     11728     11724     11726     11729
     11725     11724     11726     11726     11729     11730     11726     11729     11731
     11726     11729     11732     11727     11726     11728     11727     11726     11729
     11728     11726     11729     11729     11732     11733     11729     11732     11734
     11729     11732     11735     11730     11729     11731     11730     11729     11732
     11731     11729     11732     11732     11735     11736     11732     11735     11737
     11732     11735     11738     11733     11732     11734     11733     11732     11735
     11734     11732     11735     11735     11738     11739     11735     11738     11740
     11735     11738     11741     11736     11735     11737     11736     11735     11738
     11737     11735     11738     11738     11741     11742     11738     11741     11743
     11738     11741     11744     11739     11738     11740     11739     11738     11741
     11740     11738     11741     11741     11744     11745     11741     11744     11746
     11741     11744     11747     11742     11741     11743     11742     11741     11744
     11743     11741     11744     11744     11747     11748     11744     11747     11749
     11744     11747     11750     11745     11744     11746     11745     11744     11747
     11746     11744     11747     11747     11750     11751     11747     11750     11752
     11747     11750     11753     11748     11747     11749     11748     11747     11750
     11749     11747     11750     11750     11753     11754     11750     11753     11755
     11750     11753     11756     11751     11750     11752     11751     11750     11753
     11752     11750     11753     11753     11756     11757     11753     11756     11758
     11753     11756     11759     11754     11753     11755     11754     11753     11756
     11755     11753     11756     11756     11759     11760     11756     11759     11761
     11756     11759     11762     11757     11756     11758     11757     11756     11759
     11758     11756     11759     11759     11762     11763     11759     11762     11764
     11759     11762     11765     11760     11759     11761     11760     11759     11762
     11761     11759     11762     11763     11762     11764     11763     11762     11765
     11764     11762     11765     11766     11768     11769     11766     11768     11770
     11766     11768     11771     11767     11766     11768     11768     11771     11772
     11768     11771     11773     11768     11771     11774     11769     11768     11770
     11769     11768     11771     11770     11768     11771     11771     11774     11775
     11771     11774     11776     11771     11774     11777     11772     11771     11773
     11772     11771     11774     11773     11771     11774     11774     11777     11778
     11774     11777     11779     11774     11777     11780     11775     11774     11776
     11775     11774     11777     11776     11774     11777     11777     11780     11781
     11777     11780     11782     11777     11780     11783     11778     11777     11779
     11778     11777     11780     11779     11777     11780     11780     11783     11784
     11780     11783     11785     11780     11783     11786     11781     11780     11782
     11781     11780     11783     11782     11780     11783     11783     11786     11787
     11783     11786     11788     11783     11786     11789     11784     11783     11785
     11784     11783     11786     11785     11783     11786     11786     11789     11790
     11786     11789     11791     11787     11786     11788     11787     11786     11789
     11788     11786     11789     11789     11791     11792     11789     11791     11793
     11790     11789     11791     11791     11793     11794     11791     11793     11795
     11791     11793     11796     11792     11791     11793     11793     11796     11797
     11793     11796     11798     11793     11796     11799     11794     11793     11795
     11794     11793     11796     11795     11793     11796     11796     11799     11800
     11796     11799     11801     11796     11799     11802     11797     11796     11798
     11797     11796     11799     11798     11796     11799     11799     11802     11803
     11799     11802     11804     11799     11802     11805     11800     11799     11801
     11800     11799     11802     11801     11799     11802     11802     11805     11806
     11802     11805     11807     11802     11805     11808     11803     11802     11804
     11803     11802     11805     11804     11802     11805     11805     11808     11809
     11805     11808     11810     11805     11808     11811     11806     11805     11807
     11806     11805     11808     11807     11805     11808     11808     11811     11812
     11808     11811     11813     11808     11811     11814     11809     11808     11810
     11809     11808     11811     11810     11808     11811     11811     11814     11815
     11811     11814     11816     11811     11814     11817     11812     11811     11813
     11812     11811     11814     11813     11811     11814     11815     11814     11816
     11815     11814     11817     11816     11814     11817     11818     11819     11820
     11818     11819     11821     11818     11819     11834     11818     11822     11823
     11818     11822     11824     11818     11822     11825     11818     11826     11827
     11818     11826     11828     11818     11826     11829     11818     11830     11831
     11818     11830     11832     11818     11830     11833     11819     11818     11822
     11819     11818     11826     11819     11818     11830     11819     11834     11835
     11819     11834     11836     11819     11834     11840     11820     11819     11821
     11820     11819     11834     11821     11819     11834     11822     11818     11826
     11822     11818     11830     11823     11822     11824     11823     11822     11825
     11824     11822     11825     11826     11818     11830     11827     11826     11828
     11827     11826     11829     11828     11826     11829     11831     11830     11832
     11831     11830     11833     11832     11830     11833     11834     11840     11837
     11835     11834     11836     11835     11834     11840     11836     11834     11840
     11837     11841     11842     11838     11837     11839     11838     11837     11840
     11838     11837     11841     11839     11837     11840     11839     11837     11841
     11840     11837     11841     11841     11842     11843     11841     11842     11844
     11841     11842     11845     11842     11845     11846     11842     11845     11847
     11842     11845     11853     11843     11842     11844     11843     11842     11845
     11844     11842     11845     11845     11847     11848     11845     11853     11854
     11845     11853     11855     11845     11853     11856     11846     11845     11847
     11846     11845     11853     11847     11845     11853     11847     11848     11849
     11847     11848     11850     11848     11850     11851     11848     11850     11852
     11848     11850     11862     11849     11848     11850     11850     11862     11863
     11850     11862     11864     11850     11862     11865     11851     11850     11852
     11851     11850     11862     11852     11850     11862     11853     11856     11857
     11854     11853     11855     11854     11853     11856     11855     11853     11856
     11856     11857     11858     11856     11857     11859     11857     11859     11860
     11857     11859     11861     11857     11859     11909     11858     11857     11859
     11859     11909     11910     11859     11909     11911     11859     11909     11912
     11860     11859     11861     11860     11859     11909     11861     11859     11909
     11862     11865     11866     11862     11865     11867     11862     11865     11868
     11863     11862     11864     11863     11862     11865     11864     11862     11865
     11865     11868     11869     11865     11868     11870     11865     11868     11871
     11866     11865     11867     11866     11865     11868     11867     11865     11868
     11868     11871     11872     11868     11871     11873     11868     11871     11874
     11869     11868     11870     11869     11868     11871     11870     11868     11871
     11871     11874     11875     11871     11874     11876     11871     11874     11877
     11872     11871     11873     11872     11871     11874     11873     11871     11874
     11874     11877     11878     11874     11877     11879     11874     11877     11880
     11875     11874     11876     11875     11874     11877     11876     11874     11877
     11877     11880     11881     11877     11880     11882     11878     11877     11879
     11878     11877     11880     11879     11877     11880     11880     11882     11883
     11880     11882     11884     11881     11880     11882     11882     11884     11885
     11882     11884     11886     11882     11884     11887     11883     11882     11884
     11884     11887     11888     11884     11887     11889     11884     11887     11890
     11885     11884     11886     11885     11884     11887     11886     11884     11887
     11887     11890     11891     11887     11890     11892     11887     11890     11893
     11888     11887     11889     11888     11887     11890     11889     11887     11890
     11890     11893     11894     11890     11893     11895     11890     11893     11896
     11891     11890     11892     11891     11890     11893     11892     11890     11893
     11893     11896     11897     11893     11896     11898     11893     11896     11899
     11894     11893     11895     11894     11893     11896     11895     11893     11896
     11896     11899     11900     11896     11899     11901     11896     11899     11902
     11897     11896     11898     11897     11896     11899     11898     11896     11899
     11899     11902     11903     11899     11902     11904     11899     11902     11905
     11900     11899     11901     11900     11899     11902     11901     11899     11902
     11902     11905     11906     11902     11905     11907     11902     11905     11908
     11903     11902     11904     11903     11902     11905     11904     11902     11905
     11906     11905     11907     11906     11905     11908     11907     11905     11908
     11909     11912     11913     11909     11912     11914     11909     11912     11915
     11910     11909     11911     11910     11909     11912     11911     11909     11912
     11912     11915     11916     11912     11915     11917     11912     11915     11918
     11913     11912     11914     11913     11912     11915     11914     11912     11915
     11915     11918     11919     11915     11918     11920     11915     11918     11921
     11916     11915     11917     11916     11915     11918     11917     11915     11918
     11918     11921     11922     11918     11921     11923     11918     11921     11924
     11919     11918     11920     11919     11918     11921     11920     11918     11921
     11921     11924     11925     11921     11924     11926     11921     11924     11927
     11922     11921     11923     11922     11921     11924     11923     11921     11924
     11924     11927     11928     11924     11927     11929     11924     11927     11930
     11925     11924     11926     11925     11924     11927     11926     11924     11927
     11927     11930     11931     11927     11930     11932     11927     11930     11933
     11928     11927     11929     11928     11927     11930     11929     11927     11930
     11930     11933     11934     11930     11933     11935     11930     11933     11936
     11931     11930     11932     11931     11930     11933     11932     11930     11933
     11933     11936     11937     11933     11936     11938     11933     11936     11939
     11934     11933     11935     11934     11933     11936     11935     11933     11936
     11936     11939     11940     11936     11939     11941     11936     11939     11942
     11937     11936     11938     11937     11936     11939     11938     11936     11939
     11939     11942     11943     11939     11942     11944     11939     11942     11945
     11940     11939     11941     11940     11939     11942     11941     11939     11942
     11942     11945     11946     11942     11945     11947     11942     11945     11948
     11943     11942     11944     11943     11942     11945     11944     11942     11945
     11945     11948     11949     11945     11948     11950     11945     11948     11951
     11946     11945     11947     11946     11945     11948     11947     11945     11948
     11949     11948     11950     11949     11948     11951     11950     11948     11951
     11952     11953     11954     11952     11953     11955     11952     11953     11968
     11952     11956     11957     11952     11956     11958     11952     11956     11959
     11952     11960     11961     11952     11960     11962     11952     11960     11963
     11952     11964     11965     11952     11964     11966     11952     11964     11967
     11953     11952     11956     11953     11952     11960     11953     11952     11964
     11953     11968     11969     11953     11968     11970     11953     11968     11974
     11954     11953     11955     11954     11953     11968     11955     11953     11968
     11956     11952     11960     11956     11952     11964     11957     11956     11958
     11957     11956     11959     11958     11956     11959     11960     11952     11964
     11961     11960     11962     11961     11960     11963     11962     11960     11963
     11965     11964     11966     11965     11964     11967     11966     11964     11967
     11968     11974     11971     11969     11968     11970     11969     11968     11974
     11970     11968     11974     11971     11975     11976     11972     11971     11973
     11972     11971     11974     11972     11971     11975     11973     11971     11974
     11973     11971     11975     11974     11971     11975     11975     11976     11977
     11975     11976     11978     11975     11976     11979     11976     11979     11980
     11976     11979     11981     11976     11979     11987     11977     11976     11978
     11977     11976     11979     11978     11976     11979     11979     11981     11982
     11979     11987     11988     11979     11987     11989     11979     11987     11990
     11980     11979     11981     11980     11979     11987     11981     11979     11987
     11981     11982     11983     11981     11982     11984     11982     11984     11985
     11982     11984     11986     11982     11984     11996     11983     11982     11984
     11984     11996     11997     11984     11996     11998     11984     11996     11999
     11985     11984     11986     11985     11984     11996     11986     11984     11996
     11987     11990     11991     11988     11987     11989     11988     11987     11990
     11989     11987     11990     11990     11991     11992     11990     11991     11993
     11991     11993     11994     11991     11993     11995     11991     11993     12043
     11992     11991     11993     11993     12043     12044     11993     12043     12045
     11993     12043     12046     11994     11993     11995     11994     11993     12043
     11995     11993     12043     11996     11999     12000     11996     11999     12001
     11996     11999     12002     11997     11996     11998     11997     11996     11999
     11998     11996     11999     11999     12002     12003     11999     12002     12004
     12000     11999     12001     12000     11999     12002     12001     11999     12002
     12002     12004     12005     12002     12004     12006     12003     12002     12004
     12004     12006     12007     12004     12006     12008     12004     12006     12009
     12005     12004     12006     12006     12009     12010     12006     12009     12011
     12007     12006     12008     12007     12006     12009     12008     12006     12009
     12009     12011     12012     12009     12011     12013     12010     12009     12011
     12011     12013     12014     12011     12013     12015     12011     12013     12016
     12012     12011     12013     12013     12016     12017     12013     12016     12018
     12014     12013     12015     12014     12013     12016     12015     12013     12016
     12016     12018     12019     12016     12018     12020     12017     12016     12018
     12018     12020     12021     12018     12020     12022     12018     12020     12023
     12019     12018     12020     12020     12023     12024     12020     12023     12025
     12021     12020     12022     12021     12020     12023     12022     12020     12023
     12023     12025     12026     12023     12025     12027     12024     12023     12025
     12025     12027     12028     12025     12027     12029     12025     12027     12030
     12026     12025     12027     12027     12030     12031     12027     12030     12032
     12027     12030     12033     12028     12027     12029     12028     12027     12030
     12029     12027     12030     12030     12033     12034     12030     12033     12035
     12030     12033     12036     12031     12030     12032     12031     12030     12033
     12032     12030     12033     12033     12036     12037     12033     12036     12038
     12033     12036     12039     12034     12033     12035     12034     12033     12036
     12035     12033     12036     12036     12039     12040     12036     12039     12041
     12036     12039     12042     12037     12036     12038     12037     12036     12039
     12038     12036     12039     12040     12039     12041     12040     12039     12042
     12041     12039     12042     12043     12046     12047     12043     12046     12048
     12043     12046     12049     12044     12043     12045     12044     12043     12046
     12045     12043     12046     12046     12049     12050     12046     12049     12051
     12046     12049     12052     12047     12046     12048     12047     12046     12049
     12048     12046     12049     12049     12052     12053     12049     12052     12054
     12049     12052     12055     12050     12049     12051     12050     12049     12052
     12051     12049     12052     12052     12055     12056     12052     12055     12057
     12052     12055     12058     12053     12052     12054     12053     12052     12055
     12054     12052     12055     12055     12058     12059     12055     12058     12060
     12055     12058     12061     12056     12055     12057     12056     12055     12058
     12057     12055     12058     12058     12061     12062     12058     12061     12063
     12058     12061     12064     12059     12058     12060     12059     12058     12061
     12060     12058     12061     12061     12064     12065     12061     12064     12066
     12061     12064     12067     12062     12061     12063     12062     12061     12064
     12063     12061     12064     12064     12067     12068     12064     12067     12069
     12064     12067     12070     12065     12064     12066     12065     12064     12067
     12066     12064     12067     12067     12070     12071     12067     12070     12072
     12067     12070     12073     12068     12067     12069     12068     12067     12070
     12069     12067     12070     12070     12073     12074     12070     12073     12075
     12070     12073     12076     12071     12070     12072     12071     12070     12073
     12072     12070     12073     12073     12076     12077     12073     12076     12078
     12073     12076     12079     12074     12073     12075     12074     12073     12076
     12075     12073     12076     12076     12079     12080     12076     12079     12081
     12076     12079     12082     12077     12076     12078     12077     12076     12079
     12078     12076     12079     12079     12082     12083     12079     12082     12084
     12079     12082     12085     12080     12079     12081     12080     12079     12082
     12081     12079     12082     12082     12085     12086     12082     12085     12087
     12082     12085     12088     12083     12082     12084     12083     12082     12085
     12084     12082     12085     12085     12088     12089     12085     12088     12090
     12085     12088     12091     12086     12085     12087     12086     12085     12088
     12087     12085     12088     12089     12088     12090     12089     12088     12091
     12090     12088     12091     12092     12094     12095     12092     12096     12097
     12092     12096     12098     12092     12096     12099     12092     12138     12135
     12092     12138     12139     12092     12138     12140     12093     12092     12094
     12093     12092     12096     12093     12092     12138     12094     12092     12096
     12094     12092     12138     12096     12092     12138     12096     12099     12100
     12096     12099     12130     12097     12096     12098     12097     12096     12099
     12098     12096     12099     12099     12100     12101     12099     12100     12102
     12099     12130     12128     12099     12130     12131     12099     12130     12135
     12100     12099     12130     12100     12102     12103     12100     12102     12104
     12100     12102     12105     12101     12100     12102     12102     12105     12106
     12102     12105     12107     12102     12105     12128     12103     12102     12104
     12103     12102     12105     12104     12102     12105     12105     12107     12108
     12105     12107     12109     12105     12107     12117     12105     12128     12125
     12105     12128     12129     12105     12128     12130     12106     12105     12107
     12106     12105     12128     12107     12105     12128     12107     12109     12110
     12107     12109     12111     12107     12109     12112     12107     12117     12115
     12107     12117     12118     12107     12117     12122     12108     12107     12109
     12108     12107     12117     12109     12107     12117     12109     12112     12113
     12109     12112     12114     12109     12112     12115     12110     12109     12111
     12110     12109     12112     12111     12109     12112     12112     12115     12116
     12112     12115     12117     12112     12115     12141     12113     12112     12114
     12113     12112     12115     12114     12112     12115     12115     12117     12118
     12115     12117     12122     12115     12141     12142     12115     12141     12143
     12115     12141     12147     12116     12115     12117     12116     12115     12141
     12117     12115     12141     12117     12118     12119     12117     12118     12120
     12117     12118     12121     12117     12122     12123     12117     12122     12124
     12117     12122     12125     12118     12117     12122     12119     12118     12120
     12119     12118     12121     12120     12118     12121     12122     12125     12126
     12122     12125     12127     12122     12125     12128     12123     12122     12124
     12123     12122     12125     12124     12122     12125     12125     12128     12129
     12125     12128     12130     12126     12125     12127     12126     12125     12128
     12127     12125     12128     12128     12130     12131     12128     12130     12135
     12129     12128     12130     12130     12131     12132     12130     12131     12133
     12130     12131     12134     12130     12135     12136     12130     12135     12137
     12130     12135     12138     12131     12130     12135     12132     12131     12133
     12132     12131     12134     12133     12131     12134     12135     12138     12139
     12135     12138     12140     12136     12135     12137     12136     12135     12138
     12137     12135     12138     12139     12138     12140     12141     12143     12144
     12141     12143     12145     12141     12143     12146     12141     12147     12148
     12141     12147     12149     12141     12147     12150     12142     12141     12143
     12142     12141     12147     12143     12141     12147     12144     12143     12145
     12144     12143     12146     12145     12143     12146     12147     12150     12151
     12147     12150     12152     12147     12150     12153     12148     12147     12149
     12148     12147     12150     12149     12147     12150     12150     12153     12154
     12150     12153     12155     12150     12153     12156     12151     12150     12152
     12151     12150     12153     12152     12150     12153     12153     12156     12157
     12153     12156     12158     12153     12156     12162     12154     12153     12155
     12154     12153     12156     12155     12153     12156     12156     12158     12159
     12156     12158     12160     12156     12158     12161     12156     12162     12163
     12156     12162     12164     12156     12162     12165     12157     12156     12158
     12157     12156     12162     12158     12156     12162     12159     12158     12160
     12159     12158     12161     12160     12158     12161     12163     12162     12164
     12163     12162     12165     12164     12162     12165     12166     12168     12169
     12166     12170     12171     12166     12170     12172     12166     12170     12173
     12166     12212     12209     12166     12212     12213     12166     12212     12214
     12167     12166     12168     12167     12166     12170     12167     12166     12212
     12168     12166     12170     12168     12166     12212     12170     12166     12212
     12170     12173     12174     12170     12173     12204     12171     12170     12172
     12171     12170     12173     12172     12170     12173     12173     12174     12175
     12173     12174     12176     12173     12204     12202     12173     12204     12205
     12173     12204     12209     12174     12173     12204     12174     12176     12177
     12174     12176     12178     12174     12176     12179     12175     12174     12176
     12176     12179     12180     12176     12179     12181     12176     12179     12202
     12177     12176     12178     12177     12176     12179     12178     12176     12179
     12179     12181     12182     12179     12181     12183     12179     12181     12191
     12179     12202     12199     12179     12202     12203     12179     12202     12204
     12180     12179     12181     12180     12179     12202     12181     12179     12202
     12181     12183     12184     12181     12183     12185     12181     12183     12186
     12181     12191     12189     12181     12191     12192     12181     12191     12196
     12182     12181     12183     12182     12181     12191     12183     12181     12191
     12183     12186     12187     12183     12186     12188     12183     12186     12189
     12184     12183     12185     12184     12183     12186     12185     12183     12186
     12186     12189     12190     12186     12189     12191     12186     12189     12215
     12187     12186     12188     12187     12186     12189     12188     12186     12189
     12189     12191     12192     12189     12191     12196     12189     12215     12216
     12189     12215     12217     12189     12215     12221     12190     12189     12191
     12190     12189     12215     12191     12189     12215     12191     12192     12193
     12191     12192     12194     12191     12192     12195     12191     12196     12197
     12191     12196     12198     12191     12196     12199     12192     12191     12196
     12193     12192     12194     12193     12192     12195     12194     12192     12195
     12196     12199     12200     12196     12199     12201     12196     12199     12202
     12197     12196     12198     12197     12196     12199     12198     12196     12199
     12199     12202     12203     12199     12202     12204     12200     12199     12201
     12200     12199     12202     12201     12199     12202     12202     12204     12205
     12202     12204     12209     12203     12202     12204     12204     12205     12206
     12204     12205     12207     12204     12205     12208     12204     12209     12210
     12204     12209     12211     12204     12209     12212     12205     12204     12209
     12206     12205     12207     12206     12205     12208     12207     12205     12208
     12209     12212     12213     12209     12212     12214     12210     12209     12211
     12210     12209     12212     12211     12209     12212     12213     12212     12214
     12215     12217     12218     12215     12217     12219     12215     12217     12220
     12215     12221     12222     12215     12221     12223     12215     12221     12224
     12216     12215     12217     12216     12215     12221     12217     12215     12221
     12218     12217     12219     12218     12217     12220     12219     12217     12220
     12221     12224     12225     12221     12224     12226     12221     12224     12227
     12222     12221     12223     12222     12221     12224     12223     12221     12224
     12224     12227     12228     12224     12227     12229     12224     12227     12230
     12225     12224     12226     12225     12224     12227     12226     12224     12227
     12227     12230     12231     12227     12230     12232     12227     12230     12236
     12228     12227     12229     12228     12227     12230     12229     12227     12230
     12230     12232     12233     12230     12232     12234     12230     12232     12235
     12230     12236     12237     12230     12236     12238     12230     12236     12239
     12231     12230     12232     12231     12230     12236     12232     12230     12236
     12233     12232     12234     12233     12232     12235     12234     12232     12235
     12237     12236     12238     12237     12236     12239     12238     12236     12239
     12240     12241     12242     12240     12241     12243     12240     12241     12244
     12240     12245     12246     12240     12245     12247     12240     12245     12248
     12240     12249     12250     12240     12249     12251     12240     12249     12252
     12240     12253     12254     12240     12253     12255     12240     12253     12256
     12241     12240     12245     12241     12240     12249     12241     12240     12253
     12242     12241     12243     12242     12241     12244     12243     12241     12244
     12245     12240     12249     12245     12240     12253     12246     12245     12247
     12246     12245     12248     12247     12245     12248     12249     12240     12253
     12250     12249     12251     12250     12249     12252     12251     12249     12252
     12253     12256     12257     12253     12256     12258     12253     12256     12262
     12254     12253     12255     12254     12253     12256     12255     12253     12256
     12256     12262     12259     12257     12256     12258     12257     12256     12262
     12258     12256     12262     12259     12263     12264     12260     12259     12261
     12260     12259     12262     12260     12259     12263     12261     12259     12262
     12261     12259     12263     12262     12259     12263     12263     12264     12265
     12263     12264     12266     12263     12264     12267     12264     12267     12268
     12264     12267     12269     12264     12267     12275     12265     12264     12266
     12265     12264     12267     12266     12264     12267     12267     12269     12270
     12267     12275     12276     12267     12275     12277     12267     12275     12278
     12268     12267     12269     12268     12267     12275     12269     12267     12275
     12269     12270     12271     12269     12270     12272     12270     12272     12273
     12270     12272     12274     12270     12272     12284     12271     12270     12272
     12272     12284     12285     12272     12284     12286     12272     12284     12287
     12273     12272     12274     12273     12272     12284     12274     12272     12284
     12275     12278     12279     12276     12275     12277     12276     12275     12278
     12277     12275     12278     12278     12279     12280     12278     12279     12281
     12279     12281     12282     12279     12281     12283     12279     12281     12329
     12280     12279     12281     12281     12329     12330     12281     12329     12331
     12281     12329     12332     12282     12281     12283     12282     12281     12329
     12283     12281     12329     12284     12287     12288     12284     12287     12289
     12284     12287     12290     12285     12284     12286     12285     12284     12287
     12286     12284     12287     12287     12290     12291     12287     12290     12292
     12287     12290     12293     12288     12287     12289     12288     12287     12290
     12289     12287     12290     12290     12293     12294     12290     12293     12295
     12290     12293     12296     12291     12290     12292     12291     12290     12293
     12292     12290     12293     12293     12296     12297     12293     12296     12298
     12293     12296     12299     12294     12293     12295     12294     12293     12296
     12295     12293     12296     12296     12299     12300     12296     12299     12301
     12296     12299     12302     12297     12296     12298     12297     12296     12299
     12298     12296     12299     12299     12302     12303     12299     12302     12304
     12300     12299     12301     12300     12299     12302     12301     12299     12302
     12302     12304     12305     12302     12304     12306     12303     12302     12304
     12304     12306     12307     12304     12306     12308     12304     12306     12309
     12305     12304     12306     12306     12309     12310     12306     12309     12311
     12307     12306     12308     12307     12306     12309     12308     12306     12309
     12309     12311     12312     12309     12311     12313     12310     12309     12311
     12311     12313     12314     12311     12313     12315     12311     12313     12316
     12312     12311     12313     12313     12316     12317     12313     12316     12318
     12313     12316     12319     12314     12313     12315     12314     12313     12316
     12315     12313     12316     12316     12319     12320     12316     12319     12321
     12316     12319     12322     12317     12316     12318     12317     12316     12319
     12318     12316     12319     12319     12322     12323     12319     12322     12324
     12319     12322     12325     12320     12319     12321     12320     12319     12322
     12321     12319     12322     12322     12325     12326     12322     12325     12327
     12322     12325     12328     12323     12322     12324     12323     12322     12325
     12324     12322     12325     12326     12325     12327     12326     12325     12328
     12327     12325     12328     12329     12332     12333     12329     12332     12334
     12329     12332     12335     12330     12329     12331     12330     12329     12332
     12331     12329     12332     12332     12335     12336     12332     12335     12337
     12332     12335     12338     12333     12332     12334     12333     12332     12335
     12334     12332     12335     12335     12338     12339     12335     12338     12340
     12335     12338     12341     12336     12335     12337     12336     12335     12338
     12337     12335     12338     12338     12341     12342     12338     12341     12343
     12338     12341     12344     12339     12338     12340     12339     12338     12341
     12340     12338     12341     12341     12344     12345     12341     12344     12346
     12341     12344     12347     12342     12341     12343     12342     12341     12344
     12343     12341     12344     12344     12347     12348     12344     12347     12349
     12344     12347     12350     12345     12344     12346     12345     12344     12347
     12346     12344     12347     12347     12350     12351     12347     12350     12352
     12347     12350     12353     12348     12347     12349     12348     12347     12350
     12349     12347     12350     12350     12353     12354     12350     12353     12355
     12350     12353     12356     12351     12350     12352     12351     12350     12353
     12352     12350     12353     12353     12356     12357     12353     12356     12358
     12353     12356     12359     12354     12353     12355     12354     12353     12356
     12355     12353     12356     12356     12359     12360     12356     12359     12361
     12356     12359     12362     12357     12356     12358     12357     12356     12359
     12358     12356     12359     12359     12362     12363     12359     12362     12364
     12359     12362     12365     12360     12359     12361     12360     12359     12362
     12361     12359     12362     12362     12365     12366     12362     12365     12367
     12362     12365     12368     12363     12362     12364     12363     12362     12365
     12364     12362     12365     12365     12368     12369     12365     12368     12370
     12365     12368     12371     12366     12365     12367     12366     12365     12368
     12367     12365     12368     12368     12371     12372     12368     12371     12373
     12368     12371     12374     12369     12368     12370     12369     12368     12371
     12370     12368     12371     12371     12374     12375     12371     12374     12376
     12371     12374     12377     12372     12371     12373     12372     12371     12374
     12373     12371     12374     12375     12374     12376     12375     12374     12377
     12376     12374     12377     12378     12380     12381     12378     12382     12383
     12378     12382     12384     12378     12382     12385     12378     12424     12421
     12378     12424     12425     12378     12424     12426     12379     12378     12380
     12379     12378     12382     12379     12378     12424     12380     12378     12382
     12380     12378     12424     12382     12378     12424     12382     12385     12386
     12382     12385     12416     12383     12382     12384     12383     12382     12385
     12384     12382     12385     12385     12386     12387     12385     12386     12388
     12385     12416     12414     12385     12416     12417     12385     12416     12421
     12386     12385     12416     12386     12388     12389     12386     12388     12390
     12386     12388     12391     12387     12386     12388     12388     12391     12392
     12388     12391     12393     12388     12391     12414     12389     12388     12390
     12389     12388     12391     12390     12388     12391     12391     12393     12394
     12391     12393     12395     12391     12393     12403     12391     12414     12411
     12391     12414     12415     12391     12414     12416     12392     12391     12393
     12392     12391     12414     12393     12391     12414     12393     12395     12396
     12393     12395     12397     12393     12395     12398     12393     12403     12401
     12393     12403     12404     12393     12403     12408     12394     12393     12395
     12394     12393     12403     12395     12393     12403     12395     12398     12399
     12395     12398     12400     12395     12398     12401     12396     12395     12397
     12396     12395     12398     12397     12395     12398     12398     12401     12402
     12398     12401     12403     12398     12401     12427     12399     12398     12400
     12399     12398     12401     12400     12398     12401     12401     12403     12404
     12401     12403     12408     12401     12427     12428     12401     12427     12429
     12401     12427     12433     12402     12401     12403     12402     12401     12427
     12403     12401     12427     12403     12404     12405     12403     12404     12406
     12403     12404     12407     12403     12408     12409     12403     12408     12410
     12403     12408     12411     12404     12403     12408     12405     12404     12406
     12405     12404     12407     12406     12404     12407     12408     12411     12412
     12408     12411     12413     12408     12411     12414     12409     12408     12410
     12409     12408     12411     12410     12408     12411     12411     12414     12415
     12411     12414     12416     12412     12411     12413     12412     12411     12414
     12413     12411     12414     12414     12416     12417     12414     12416     12421
     12415     12414     12416     12416     12417     12418     12416     12417     12419
     12416     12417     12420     12416     12421     12422     12416     12421     12423
     12416     12421     12424     12417     12416     12421     12418     12417     12419
     12418     12417     12420     12419     12417     12420     12421     12424     12425
     12421     12424     12426     12422     12421     12423     12422     12421     12424
     12423     12421     12424     12425     12424     12426     12427     12429     12430
     12427     12429     12431     12427     12429     12432     12427     12433     12434
     12427     12433     12435     12427     12433     12436     12428     12427     12429
     12428     12427     12433     12429     12427     12433     12430     12429     12431
     12430     12429     12432     12431     12429     12432     12433     12436     12437
     12433     12436     12438     12433     12436     12439     12434     12433     12435
     12434     12433     12436     12435     12433     12436     12436     12439     12440
     12436     12439     12441     12436     12439     12442     12437     12436     12438
     12437     12436     12439     12438     12436     12439     12439     12442     12443
     12439     12442     12444     12439     12442     12448     12440     12439     12441
     12440     12439     12442     12441     12439     12442     12442     12444     12445
     12442     12444     12446     12442     12444     12447     12442     12448     12449
     12442     12448     12450     12442     12448     12451     12443     12442     12444
     12443     12442     12448     12444     12442     12448     12445     12444     12446
     12445     12444     12447     12446     12444     12447     12449     12448     12450
     12449     12448     12451     12450     12448     12451     12452     12456     12457
     12452     12456     12458     12452     12456     12459     12453     12452     12454
     12453     12452     12455     12453     12452     12456     12454     12452     12455
     12454     12452     12456     12455     12452     12456     12456     12459     12460
     12456     12459     12461     12456     12459     12465     12457     12456     12458
     12457     12456     12459     12458     12456     12459     12459     12465     12462
     12460     12459     12461     12460     12459     12465     12461     12459     12465
     12462     12466     12467     12463     12462     12464     12463     12462     12465
     12463     12462     12466     12464     12462     12465     12464     12462     12466
     12465     12462     12466     12466     12467     12468     12466     12467     12469
     12466     12467     12470     12467     12470     12471     12467     12470     12472
     12467     12470     12478     12468     12467     12469     12468     12467     12470
     12469     12467     12470     12470     12472     12473     12470     12478     12479
     12470     12478     12480     12470     12478     12481     12471     12470     12472
     12471     12470     12478     12472     12470     12478     12472     12473     12474
     12472     12473     12475     12473     12475     12476     12473     12475     12477
     12473     12475     12487     12474     12473     12475     12475     12487     12488
     12475     12487     12489     12475     12487     12490     12476     12475     12477
     12476     12475     12487     12477     12475     12487     12478     12481     12482
     12479     12478     12480     12479     12478     12481     12480     12478     12481
     12481     12482     12483     12481     12482     12484     12482     12484     12485
     12482     12484     12486     12482     12484     12534     12483     12482     12484
     12484     12534     12535     12484     12534     12536     12484     12534     12537
     12485     12484     12486     12485     12484     12534     12486     12484     12534
     12487     12490     12491     12487     12490     12492     12487     12490     12493
     12488     12487     12489     12488     12487     12490     12489     12487     12490
     12490     12493     12494     12490     12493     12495     12491     12490     12492
     12491     12490     12493     12492     12490     12493     12493     12495     12496
     12493     12495     12497     12494     12493     12495     12495     12497     12498
     12495     12497     12499     12495     12497     12500     12496     12495     12497
     12497     12500     12501     12497     12500     12502     12498     12497     12499
     12498     12497     12500     12499     12497     12500     12500     12502     12503
     12500     12502     12504     12501     12500     12502     12502     12504     12505
     12502     12504     12506     12502     12504     12507     12503     12502     12504
     12504     12507     12508     12504     12507     12509     12505     12504     12506
     12505     12504     12507     12506     12504     12507     12507     12509     12510
     12507     12509     12511     12508     12507     12509     12509     12511     12512
     12509     12511     12513     12509     12511     12514     12510     12509     12511
     12511     12514     12515     12511     12514     12516     12512     12511     12513
     12512     12511     12514     12513     12511     12514     12514     12516     12517
     12514     12516     12518     12515     12514     12516     12516     12518     12519
     12516     12518     12520     12516     12518     12521     12517     12516     12518
     12518     12521     12522     12518     12521     12523     12518     12521     12524
     12519     12518     12520     12519     12518     12521     12520     12518     12521
     12521     12524     12525     12521     12524     12526     12521     12524     12527
     12522     12521     12523     12522     12521     12524     12523     12521     12524
     12524     12527     12528     12524     12527     12529     12524     12527     12530
     12525     12524     12526     12525     12524     12527     12526     12524     12527
     12527     12530     12531     12527     12530     12532     12527     12530     12533
     12528     12527     12529     12528     12527     12530     12529     12527     12530
     12531     12530     12532     12531     12530     12533     12532     12530     12533
     12534     12537     12538     12534     12537     12539     12534     12537     12540
     12535     12534     12536     12535     12534     12537     12536     12534     12537
     12537     12540     12541     12537     12540     12542     12537     12540     12543
     12538     12537     12539     12538     12537     12540     12539     12537     12540
     12540     12543     12544     12540     12543     12545     12540     12543     12546
     12541     12540     12542     12541     12540     12543     12542     12540     12543
     12543     12546     12547     12543     12546     12548     12543     12546     12549
     12544     12543     12545     12544     12543     12546     12545     12543     12546
     12546     12549     12550     12546     12549     12551     12546     12549     12552
     12547     12546     12548     12547     12546     12549     12548     12546     12549
     12549     12552     12553     12549     12552     12554     12549     12552     12555
     12550     12549     12551     12550     12549     12552     12551     12549     12552
     12552     12555     12556     12552     12555     12557     12552     12555     12558
     12553     12552     12554     12553     12552     12555     12554     12552     12555
     12555     12558     12559     12555     12558     12560     12555     12558     12561
     12556     12555     12557     12556     12555     12558     12557     12555     12558
     12558     12561     12562     12558     12561     12563     12558     12561     12564
     12559     12558     12560     12559     12558     12561     12560     12558     12561
     12561     12564     12565     12561     12564     12566     12561     12564     12567
     12562     12561     12563     12562     12561     12564     12563     12561     12564
     12564     12567     12568     12564     12567     12569     12564     12567     12570
     12565     12564     12566     12565     12564     12567     12566     12564     12567
     12567     12570     12571     12567     12570     12572     12567     12570     12573
     12568     12567     12569     12568     12567     12570     12569     12567     12570
     12570     12573     12574     12570     12573     12575     12570     12573     12576
     12571     12570     12572     12571     12570     12573     12572     12570     12573
     12573     12576     12577     12573     12576     12578     12573     12576     12579
     12574     12573     12575     12574     12573     12576     12575     12573     12576
     12576     12579     12580     12576     12579     12581     12576     12579     12582
     12577     12576     12578     12577     12576     12579     12578     12576     12579
     12580     12579     12581     12580     12579     12582     12581     12579     12582
     12583     12587     12588     12583     12587     12589     12583     12587     12590
     12584     12583     12585     12584     12583     12586     12584     12583     12587
     12585     12583     12586     12585     12583     12587     12586     12583     12587
     12587     12590     12591     12587     12590     12592     12587     12590     12596
     12588     12587     12589     12588     12587     12590     12589     12587     12590
     12590     12596     12593     12591     12590     12592     12591     12590     12596
     12592     12590     12596     12593     12597     12598     12594     12593     12595
     12594     12593     12596     12594     12593     12597     12595     12593     12596
     12595     12593     12597     12596     12593     12597     12597     12598     12599
     12597     12598     12600     12597     12598     12601     12598     12601     12602
     12598     12601     12603     12598     12601     12609     12599     12598     12600
     12599     12598     12601     12600     12598     12601     12601     12603     12604
     12601     12609     12610     12601     12609     12611     12601     12609     12612
     12602     12601     12603     12602     12601     12609     12603     12601     12609
     12603     12604     12605     12603     12604     12606     12604     12606     12607
     12604     12606     12608     12604     12606     12618     12605     12604     12606
     12606     12618     12619     12606     12618     12620     12606     12618     12621
     12607     12606     12608     12607     12606     12618     12608     12606     12618
     12609     12612     12613     12610     12609     12611     12610     12609     12612
     12611     12609     12612     12612     12613     12614     12612     12613     12615
     12613     12615     12616     12613     12615     12617     12613     12615     12665
     12614     12613     12615     12615     12665     12666     12615     12665     12667
     12615     12665     12668     12616     12615     12617     12616     12615     12665
     12617     12615     12665     12618     12621     12622     12618     12621     12623
     12618     12621     12624     12619     12618     12620     12619     12618     12621
     12620     12618     12621     12621     12624     12625     12621     12624     12626
     12621     12624     12627     12622     12621     12623     12622     12621     12624
     12623     12621     12624     12624     12627     12628     12624     12627     12629
     12624     12627     12630     12625     12624     12626     12625     12624     12627
     12626     12624     12627     12627     12630     12631     12627     12630     12632
     12627     12630     12633     12628     12627     12629     12628     12627     12630
     12629     12627     12630     12630     12633     12634     12630     12633     12635
     12630     12633     12636     12631     12630     12632     12631     12630     12633
     12632     12630     12633     12633     12636     12637     12633     12636     12638
     12634     12633     12635     12634     12633     12636     12635     12633     12636
     12636     12638     12639     12636     12638     12640     12637     12636     12638
     12638     12640     12641     12638     12640     12642     12638     12640     12643
     12639     12638     12640     12640     12643     12644     12640     12643     12645
     12640     12643     12646     12641     12640     12642     12641     12640     12643
     12642     12640     12643     12643     12646     12647     12643     12646     12648
     12643     12646     12649     12644     12643     12645     12644     12643     12646
     12645     12643     12646     12646     12649     12650     12646     12649     12651
     12646     12649     12652     12647     12646     12648     12647     12646     12649
     12648     12646     12649     12649     12652     12653     12649     12652     12654
     12649     12652     12655     12650     12649     12651     12650     12649     12652
     12651     12649     12652     12652     12655     12656     12652     12655     12657
     12652     12655     12658     12653     12652     12654     12653     12652     12655
     12654     12652     12655     12655     12658     12659     12655     12658     12660
     12655     12658     12661     12656     12655     12657     12656     12655     12658
     12657     12655     12658     12658     12661     12662     12658     12661     12663
     12658     12661     12664     12659     12658     12660     12659     12658     12661
     12660     12658     12661     12662     12661     12663     12662     12661     12664
     12663     12661     12664     12665     12668     12669     12665     12668     12670
     12665     12668     12671     12666     12665     12667     12666     12665     12668
     12667     12665     12668     12668     12671     12672     12668     12671     12673
     12668     12671     12674     12669     12668     12670     12669     12668     12671
     12670     12668     12671     12671     12674     12675     12671     12674     12676
     12671     12674     12677     12672     12671     12673     12672     12671     12674
     12673     12671     12674     12674     12677     12678     12674     12677     12679
     12674     12677     12680     12675     12674     12676     12675     12674     12677
     12676     12674     12677     12677     12680     12681     12677     12680     12682
     12677     12680     12683     12678     12677     12679     12678     12677     12680
     12679     12677     12680     12680     12683     12684     12680     12683     12685
     12680     12683     12686     12681     12680     12682     12681     12680     12683
     12682     12680     12683     12683     12686     12687     12683     12686     12688
     12683     12686     12689     12684     12683     12685     12684     12683     12686
     12685     12683     12686     12686     12689     12690     12686     12689     12691
     12686     12689     12692     12687     12686     12688     12687     12686     12689
     12688     12686     12689     12689     12692     12693     12689     12692     12694
     12689     12692     12695     12690     12689     12691     12690     12689     12692
     12691     12689     12692     12692     12695     12696     12692     12695     12697
     12692     12695     12698     12693     12692     12694     12693     12692     12695
     12694     12692     12695     12695     12698     12699     12695     12698     12700
     12695     12698     12701     12696     12695     12697     12696     12695     12698
     12697     12695     12698     12698     12701     12702     12698     12701     12703
     12698     12701     12704     12699     12698     12700     12699     12698     12701
     12700     12698     12701     12701     12704     12705     12701     12704     12706
     12701     12704     12707     12702     12701     12703     12702     12701     12704
     12703     12701     12704     12704     12707     12708     12704     12707     12709
     12704     12707     12710     12705     12704     12706     12705     12704     12707
     12706     12704     12707     12707     12710     12711     12707     12710     12712
     12707     12710     12713     12708     12707     12709     12708     12707     12710
     12709     12707     12710     12711     12710     12712     12711     12710     12713
     12712     12710     12713     12714     12716     12717     12714     12718     12719
     12714     12718     12720     12714     12718     12721     12714     12760     12757
     12714     12760     12761     12714     12760     12762     12715     12714     12716
     12715     12714     12718     12715     12714     12760     12716     12714     12718
     12716     12714     12760     12718     12714     12760     12718     12721     12722
     12718     12721     12752     12719     12718     12720     12719     12718     12721
     12720     12718     12721     12721     12722     12723     12721     12722     12724
     12721     12752     12750     12721     12752     12753     12721     12752     12757
     12722     12721     12752     12722     12724     12725     12722     12724     12726
     12722     12724     12727     12723     12722     12724     12724     12727     12728
     12724     12727     12729     12724     12727     12750     12725     12724     12726
     12725     12724     12727     12726     12724     12727     12727     12729     12730
     12727     12729     12731     12727     12729     12739     12727     12750     12747
     12727     12750     12751     12727     12750     12752     12728     12727     12729
     12728     12727     12750     12729     12727     12750     12729     12731     12732
     12729     12731     12733     12729     12731     12734     12729     12739     12737
     12729     12739     12740     12729     12739     12744     12730     12729     12731
     12730     12729     12739     12731     12729     12739     12731     12734     12735
     12731     12734     12736     12731     12734     12737     12732     12731     12733
     12732     12731     12734     12733     12731     12734     12734     12737     12738
     12734     12737     12739     12734     12737     12763     12735     12734     12736
     12735     12734     12737     12736     12734     12737     12737     12739     12740
     12737     12739     12744     12737     12763     12764     12737     12763     12765
     12737     12763     12769     12738     12737     12739     12738     12737     12763
     12739     12737     12763     12739     12740     12741     12739     12740     12742
     12739     12740     12743     12739     12744     12745     12739     12744     12746
     12739     12744     12747     12740     12739     12744     12741     12740     12742
     12741     12740     12743     12742     12740     12743     12744     12747     12748
     12744     12747     12749     12744     12747     12750     12745     12744     12746
     12745     12744     12747     12746     12744     12747     12747     12750     12751
     12747     12750     12752     12748     12747     12749     12748     12747     12750
     12749     12747     12750     12750     12752     12753     12750     12752     12757
     12751     12750     12752     12752     12753     12754     12752     12753     12755
     12752     12753     12756     12752     12757     12758     12752     12757     12759
     12752     12757     12760     12753     12752     12757     12754     12753     12755
     12754     12753     12756     12755     12753     12756     12757     12760     12761
     12757     12760     12762     12758     12757     12759     12758     12757     12760
     12759     12757     12760     12761     12760     12762     12763     12765     12766
     12763     12765     12767     12763     12765     12768     12763     12769     12770
     12763     12769     12771     12763     12769     12772     12764     12763     12765
     12764     12763     12769     12765     12763     12769     12766     12765     12767
     12766     12765     12768     12767     12765     12768     12769     12772     12773
     12769     12772     12774     12769     12772     12775     12770     12769     12771
     12770     12769     12772     12771     12769     12772     12772     12775     12776
     12772     12775     12777     12772     12775     12778     12773     12772     12774
     12773     12772     12775     12774     12772     12775     12775     12778     12779
     12775     12778     12780     12775     12778     12784     12776     12775     12777
     12776     12775     12778     12777     12775     12778     12778     12780     12781
     12778     12780     12782     12778     12780     12783     12778     12784     12785
     12778     12784     12786     12778     12784     12787     12779     12778     12780
     12779     12778     12784     12780     12778     12784     12781     12780     12782
     12781     12780     12783     12782     12780     12783     12785     12784     12786
     12785     12784     12787     12786     12784     12787     12788     12789     12790
     12788     12789     12791     12788     12789     12792     12788     12793     12794
     12788     12793     12795     12788     12793     12796     12788     12797     12798
     12788     12797     12799     12788     12797     12800     12788     12801     12802
     12788     12801     12803     12788     12801     12804     12789     12788     12793
     12789     12788     12797     12789     12788     12801     12790     12789     12791
     12790     12789     12792     12791     12789     12792     12793     12788     12797
     12793     12788     12801     12794     12793     12795     12794     12793     12796
     12795     12793     12796     12797     12788     12801     12798     12797     12799
     12798     12797     12800     12799     12797     12800     12801     12804     12805
     12801     12804     12806     12801     12804     12810     12802     12801     12803
     12802     12801     12804     12803     12801     12804     12804     12810     12807
     12805     12804     12806     12805     12804     12810     12806     12804     12810
     12807     12811     12812     12808     12807     12809     12808     12807     12810
     12808     12807     12811     12809     12807     12810     12809     12807     12811
     12810     12807     12811     12811     12812     12813     12811     12812     12814
     12811     12812     12815     12812     12815     12816     12812     12815     12817
     12812     12815     12823     12813     12812     12814     12813     12812     12815
     12814     12812     12815     12815     12817     12818     12815     12823     12824
     12815     12823     12825     12815     12823     12826     12816     12815     12817
     12816     12815     12823     12817     12815     12823     12817     12818     12819
     12817     12818     12820     12818     12820     12821     12818     12820     12822
     12818     12820     12832     12819     12818     12820     12820     12832     12833
     12820     12832     12834     12820     12832     12835     12821     12820     12822
     12821     12820     12832     12822     12820     12832     12823     12826     12827
     12824     12823     12825     12824     12823     12826     12825     12823     12826
     12826     12827     12828     12826     12827     12829     12827     12829     12830
     12827     12829     12831     12827     12829     12877     12828     12827     12829
     12829     12877     12878     12829     12877     12879     12829     12877     12880
     12830     12829     12831     12830     12829     12877     12831     12829     12877
     12832     12835     12836     12832     12835     12837     12832     12835     12838
     12833     12832     12834     12833     12832     12835     12834     12832     12835
     12835     12838     12839     12835     12838     12840     12835     12838     12841
     12836     12835     12837     12836     12835     12838     12837     12835     12838
     12838     12841     12842     12838     12841     12843     12838     12841     12844
     12839     12838     12840     12839     12838     12841     12840     12838     12841
     12841     12844     12845     12841     12844     12846     12841     12844     12847
     12842     12841     12843     12842     12841     12844     12843     12841     12844
     12844     12847     12848     12844     12847     12849     12844     12847     12850
     12845     12844     12846     12845     12844     12847     12846     12844     12847
     12847     12850     12851     12847     12850     12852     12848     12847     12849
     12848     12847     12850     12849     12847     12850     12850     12852     12853
     12850     12852     12854     12851     12850     12852     12852     12854     12855
     12852     12854     12856     12852     12854     12857     12853     12852     12854
     12854     12857     12858     12854     12857     12859     12855     12854     12856
     12855     12854     12857     12856     12854     12857     12857     12859     12860
     12857     12859     12861     12858     12857     12859     12859     12861     12862
     12859     12861     12863     12859     12861     12864     12860     12859     12861
     12861     12864     12865     12861     12864     12866     12861     12864     12867
     12862     12861     12863     12862     12861     12864     12863     12861     12864
     12864     12867     12868     12864     12867     12869     12864     12867     12870
     12865     12864     12866     12865     12864     12867     12866     12864     12867
     12867     12870     12871     12867     12870     12872     12867     12870     12873
     12868     12867     12869     12868     12867     12870     12869     12867     12870
     12870     12873     12874     12870     12873     12875     12870     12873     12876
     12871     12870     12872     12871     12870     12873     12872     12870     12873
     12874     12873     12875     12874     12873     12876     12875     12873     12876
     12877     12880     12881     12877     12880     12882     12877     12880     12883
     12878     12877     12879     12878     12877     12880     12879     12877     12880
     12880     12883     12884     12880     12883     12885     12880     12883     12886
     12881     12880     12882     12881     12880     12883     12882     12880     12883
     12883     12886     12887     12883     12886     12888     12883     12886     12889
     12884     12883     12885     12884     12883     12886     12885     12883     12886
     12886     12889     12890     12886     12889     12891     12886     12889     12892
     12887     12886     12888     12887     12886     12889     12888     12886     12889
     12889     12892     12893     12889     12892     12894     12889     12892     12895
     12890     12889     12891     12890     12889     12892     12891     12889     12892
     12892     12895     12896     12892     12895     12897     12892     12895     12898
     12893     12892     12894     12893     12892     12895     12894     12892     12895
     12895     12898     12899     12895     12898     12900     12895     12898     12901
     12896     12895     12897     12896     12895     12898     12897     12895     12898
     12898     12901     12902     12898     12901     12903     12898     12901     12904
     12899     12898     12900     12899     12898     12901     12900     12898     12901
     12901     12904     12905     12901     12904     12906     12901     12904     12907
     12902     12901     12903     12902     12901     12904     12903     12901     12904
     12904     12907     12908     12904     12907     12909     12904     12907     12910
     12905     12904     12906     12905     12904     12907     12906     12904     12907
     12907     12910     12911     12907     12910     12912     12907     12910     12913
     12908     12907     12909     12908     12907     12910     12909     12907     12910
     12910     12913     12914     12910     12913     12915     12910     12913     12916
     12911     12910     12912     12911     12910     12913     12912     12910     12913
     12913     12916     12917     12913     12916     12918     12913     12916     12919
     12914     12913     12915     12914     12913     12916     12915     12913     12916
     12916     12919     12920     12916     12919     12921     12916     12919     12922
     12917     12916     12918     12917     12916     12919     12918     12916     12919
     12919     12922     12923     12919     12922     12924     12919     12922     12925
     12920     12919     12921     12920     12919     12922     12921     12919     12922
     12923     12922     12924     12923     12922     12925     12924     12922     12925
     12926     12928     12929     12926     12930     12931     12926     12930     12932
     12926     12930     12933     12926     12972     12969     12926     12972     12973
     12926     12972     12974     12927     12926     12928     12927     12926     12930
     12927     12926     12972     12928     12926     12930     12928     12926     12972
     12930     12926     12972     12930     12933     12934     12930     12933     12964
     12931     12930     12932     12931     12930     12933     12932     12930     12933
     12933     12934     12935     12933     12934     12936     12933     12964     12962
     12933     12964     12965     12933     12964     12969     12934     12933     12964
     12934     12936     12937     12934     12936     12938     12934     12936     12939
     12935     12934     12936     12936     12939     12940     12936     12939     12941
     12936     12939     12962     12937     12936     12938     12937     12936     12939
     12938     12936     12939     12939     12941     12942     12939     12941     12943
     12939     12941     12951     12939     12962     12959     12939     12962     12963
     12939     12962     12964     12940     12939     12941     12940     12939     12962
     12941     12939     12962     12941     12943     12944     12941     12943     12945
     12941     12943     12946     12941     12951     12949     12941     12951     12952
     12941     12951     12956     12942     12941     12943     12942     12941     12951
     12943     12941     12951     12943     12946     12947     12943     12946     12948
     12943     12946     12949     12944     12943     12945     12944     12943     12946
     12945     12943     12946     12946     12949     12950     12946     12949     12951
     12946     12949     12975     12947     12946     12948     12947     12946     12949
     12948     12946     12949     12949     12951     12952     12949     12951     12956
     12949     12975     12976     12949     12975     12977     12949     12975     12981
     12950     12949     12951     12950     12949     12975     12951     12949     12975
     12951     12952     12953     12951     12952     12954     12951     12952     12955
     12951     12956     12957     12951     12956     12958     12951     12956     12959
     12952     12951     12956     12953     12952     12954     12953     12952     12955
     12954     12952     12955     12956     12959     12960     12956     12959     12961
     12956     12959     12962     12957     12956     12958     12957     12956     12959
     12958     12956     12959     12959     12962     12963     12959     12962     12964
     12960     12959     12961     12960     12959     12962     12961     12959     12962
     12962     12964     12965     12962     12964     12969     12963     12962     12964
     12964     12965     12966     12964     12965     12967     12964     12965     12968
     12964     12969     12970     12964     12969     12971     12964     12969     12972
     12965     12964     12969     12966     12965     12967     12966     12965     12968
     12967     12965     12968     12969     12972     12973     12969     12972     12974
     12970     12969     12971     12970     12969     12972     12971     12969     12972
     12973     12972     12974     12975     12977     12978     12975     12977     12979
     12975     12977     12980     12975     12981     12982     12975     12981     12983
     12975     12981     12984     12976     12975     12977     12976     12975     12981
     12977     12975     12981     12978     12977     12979     12978     12977     12980
     12979     12977     12980     12981     12984     12985     12981     12984     12986
     12981     12984     12987     12982     12981     12983     12982     12981     12984
     12983     12981     12984     12984     12987     12988     12984     12987     12989
     12984     12987     12990     12985     12984     12986     12985     12984     12987
     12986     12984     12987     12987     12990     12991     12987     12990     12992
     12987     12990     12996     12988     12987     12989     12988     12987     12990
     12989     12987     12990     12990     12992     12993     12990     12992     12994
     12990     12992     12995     12990     12996     12997     12990     12996     12998
     12990     12996     12999     12991     12990     12992     12991     12990     12996
     12992     12990     12996     12993     12992     12994     12993     12992     12995
     12994     12992     12995     12997     12996     12998     12997     12996     12999
     12998     12996     12999     13000     13001     13002     13000     13001     13003
     13000     13001     13004     13000     13005     13006     13000     13005     13007
     13000     13005     13008     13000     13009     13010     13000     13009     13011
     13000     13009     13012     13000     13013     13014     13000     13013     13015
     13000     13013     13016     13001     13000     13005     13001     13000     13009
     13001     13000     13013     13002     13001     13003     13002     13001     13004
     13003     13001     13004     13005     13000     13009     13005     13000     13013
     13006     13005     13007     13006     13005     13008     13007     13005     13008
     13009     13000     13013     13010     13009     13011     13010     13009     13012
     13011     13009     13012     13013     13016     13017     13013     13016     13018
     13013     13016     13023     13014     13013     13015     13014     13013     13016
     13015     13013     13016     13016     13023     13019     13017     13016     13018
     13017     13016     13023     13018     13016     13023     13019     13022     13024
     13020     13019     13021     13020     13019     13022     13020     13019     13023
     13021     13019     13022     13021     13019     13023     13022     13019     13023
     13022     13024     13025     13022     13024     13026     13022     13024     13029
     13024     13029     13027     13024     13029     13030     13024     13029     13031
     13025     13024     13026     13025     13024     13029     13026     13024     13029
     13027     13029     13030     13027     13029     13031     13027     13079     13080
     13027     13079     13081     13028     13027     13029     13028     13027     13079
     13029     13027     13079     13029     13031     13032     13029     13031     13033
     13029     13031     13035     13030     13029     13031     13031     13033     13034
     13031     13035     13036     13031     13035     13037     13032     13031     13033
     13032     13031     13035     13033     13031     13035     13035     13037     13038
     13035     13037     13039     13036     13035     13037     13037     13039     13040
     13037     13039     13041     13037     13039     13042     13038     13037     13039
     13039     13042     13043     13039     13042     13044     13039     13042     13045
     13040     13039     13041     13040     13039     13042     13041     13039     13042
     13042     13045     13046     13042     13045     13047     13042     13045     13048
     13043     13042     13044     13043     13042     13045     13044     13042     13045
     13045     13048     13049     13045     13048     13050     13045     13048     13051
     13046     13045     13047     13046     13045     13048     13047     13045     13048
     13048     13051     13052     13048     13051     13053     13048     13051     13054
     13049     13048     13050     13049     13048     13051     13050     13048     13051
     13051     13054     13055     13051     13054     13056     13051     13054     13057
     13052     13051     13053     13052     13051     13054     13053     13051     13054
     13054     13057     13058     13054     13057     13059     13054     13057     13060
     13055     13054     13056     13055     13054     13057     13056     13054     13057
     13057     13060     13061     13057     13060     13062     13057     13060     13063
     13058     13057     13059     13058     13057     13060     13059     13057     13060
     13060     13063     13064     13060     13063     13065     13060     13063     13066
     13061     13060     13062     13061     13060     13063     13062     13060     13063
     13063     13066     13067     13063     13066     13068     13063     13066     13069
     13064     13063     13065     13064     13063     13066     13065     13063     13066
     13066     13069     13070     13066     13069     13071     13066     13069     13072
     13067     13066     13068     13067     13066     13069     13068     13066     13069
     13069     13072     13073     13069     13072     13074     13069     13072     13075
     13070     13069     13071     13070     13069     13072     13071     13069     13072
     13072     13075     13076     13072     13075     13077     13072     13075     13078
     13073     13072     13074     13073     13072     13075     13074     13072     13075
     13076     13075     13077     13076     13075     13078     13077     13075     13078
     13079     13081     13082     13079     13081     13083     13079     13081     13084
     13080     13079     13081     13081     13084     13085     13081     13084     13086
     13081     13084     13087     13082     13081     13083     13082     13081     13084
     13083     13081     13084     13084     13087     13088     13084     13087     13089
     13084     13087     13090     13085     13084     13086     13085     13084     13087
     13086     13084     13087     13087     13090     13091     13087     13090     13092
     13087     13090     13093     13088     13087     13089     13088     13087     13090
     13089     13087     13090     13090     13093     13094     13090     13093     13095
     13090     13093     13096     13091     13090     13092     13091     13090     13093
     13092     13090     13093     13093     13096     13097     13093     13096     13098
     13093     13096     13099     13094     13093     13095     13094     13093     13096
     13095     13093     13096     13096     13099     13100     13096     13099     13101
     13096     13099     13102     13097     13096     13098     13097     13096     13099
     13098     13096     13099     13099     13102     13103     13099     13102     13104
     13100     13099     13101     13100     13099     13102     13101     13099     13102
     13102     13104     13105     13102     13104     13106     13103     13102     13104
     13104     13106     13107     13104     13106     13108     13104     13106     13109
     13105     13104     13106     13106     13109     13110     13106     13109     13111
     13106     13109     13112     13107     13106     13108     13107     13106     13109
     13108     13106     13109     13109     13112     13113     13109     13112     13114
     13109     13112     13115     13110     13109     13111     13110     13109     13112
     13111     13109     13112     13112     13115     13116     13112     13115     13117
     13112     13115     13118     13113     13112     13114     13113     13112     13115
     13114     13112     13115     13115     13118     13119     13115     13118     13120
     13115     13118     13121     13116     13115     13117     13116     13115     13118
     13117     13115     13118     13118     13121     13122     13118     13121     13123
     13118     13121     13124     13119     13118     13120     13119     13118     13121
     13120     13118     13121     13121     13124     13125     13121     13124     13126
     13121     13124     13127     13122     13121     13123     13122     13121     13124
     13123     13121     13124     13124     13127     13128     13124     13127     13129
     13124     13127     13130     13125     13124     13126     13125     13124     13127
     13126     13124     13127     13128     13127     13129     13128     13127     13130
     13129     13127     13130     13131     13132     13133     13131     13132     13134
     13131     13132     13135     13131     13136     13137     13131     13136     13138
     13131     13136     13139     13131     13140     13141     13131     13140     13142
     13131     13140     13143     13131     13144     13145     13131     13144     13146
     13131     13144     13147     13132     13131     13136     13132     13131     13140
     13132     13131     13144     13133     13132     13134     13133     13132     13135
     13134     13132     13135     13136     13131     13140     13136     13131     13144
     13137     13136     13138     13137     13136     13139     13138     13136     13139
     13140     13131     13144     13141     13140     13142     13141     13140     13143
     13142     13140     13143     13144     13147     13148     13144     13147     13149
     13144     13147     13154     13145     13144     13146     13145     13144     13147
     13146     13144     13147     13147     13154     13150     13148     13147     13149
     13148     13147     13154     13149     13147     13154     13150     13153     13155
     13151     13150     13152     13151     13150     13153     13151     13150     13154
     13152     13150     13153     13152     13150     13154     13153     13150     13154
     13153     13155     13156     13153     13155     13157     13153     13155     13160
     13155     13160     13158     13155     13160     13161     13155     13160     13162
     13156     13155     13157     13156     13155     13160     13157     13155     13160
     13158     13160     13161     13158     13160     13162     13158     13210     13211
     13158     13210     13212     13159     13158     13160     13159     13158     13210
     13160     13158     13210     13160     13162     13163     13160     13162     13164
     13160     13162     13166     13161     13160     13162     13162     13164     13165
     13162     13166     13167     13162     13166     13168     13163     13162     13164
     13163     13162     13166     13164     13162     13166     13166     13168     13169
     13166     13168     13170     13167     13166     13168     13168     13170     13171
     13168     13170     13172     13168     13170     13173     13169     13168     13170
     13170     13173     13174     13170     13173     13175     13170     13173     13176
     13171     13170     13172     13171     13170     13173     13172     13170     13173
     13173     13176     13177     13173     13176     13178     13173     13176     13179
     13174     13173     13175     13174     13173     13176     13175     13173     13176
     13176     13179     13180     13176     13179     13181     13176     13179     13182
     13177     13176     13178     13177     13176     13179     13178     13176     13179
     13179     13182     13183     13179     13182     13184     13179     13182     13185
     13180     13179     13181     13180     13179     13182     13181     13179     13182
     13182     13185     13186     13182     13185     13187     13182     13185     13188
     13183     13182     13184     13183     13182     13185     13184     13182     13185
     13185     13188     13189     13185     13188     13190     13185     13188     13191
     13186     13185     13187     13186     13185     13188     13187     13185     13188
     13188     13191     13192     13188     13191     13193     13188     13191     13194
     13189     13188     13190     13189     13188     13191     13190     13188     13191
     13191     13194     13195     13191     13194     13196     13191     13194     13197
     13192     13191     13193     13192     13191     13194     13193     13191     13194
     13194     13197     13198     13194     13197     13199     13194     13197     13200
     13195     13194     13196     13195     13194     13197     13196     13194     13197
     13197     13200     13201     13197     13200     13202     13197     13200     13203
     13198     13197     13199     13198     13197     13200     13199     13197     13200
     13200     13203     13204     13200     13203     13205     13200     13203     13206
     13201     13200     13202     13201     13200     13203     13202     13200     13203
     13203     13206     13207     13203     13206     13208     13203     13206     13209
     13204     13203     13205     13204     13203     13206     13205     13203     13206
     13207     13206     13208     13207     13206     13209     13208     13206     13209
     13210     13212     13213     13210     13212     13214     13210     13212     13215
     13211     13210     13212     13212     13215     13216     13212     13215     13217
     13212     13215     13218     13213     13212     13214     13213     13212     13215
     13214     13212     13215     13215     13218     13219     13215     13218     13220
     13215     13218     13221     13216     13215     13217     13216     13215     13218
     13217     13215     13218     13218     13221     13222     13218     13221     13223
     13218     13221     13224     13219     13218     13220     13219     13218     13221
     13220     13218     13221     13221     13224     13225     13221     13224     13226
     13221     13224     13227     13222     13221     13223     13222     13221     13224
     13223     13221     13224     13224     13227     13228     13224     13227     13229
     13224     13227     13230     13225     13224     13226     13225     13224     13227
     13226     13224     13227     13227     13230     13231     13227     13230     13232
     13227     13230     13233     13228     13227     13229     13228     13227     13230
     13229     13227     13230     13230     13233     13234     13230     13233     13235
     13231     13230     13232     13231     13230     13233     13232     13230     13233
     13233     13235     13236     13233     13235     13237     13234     13233     13235
     13235     13237     13238     13235     13237     13239     13235     13237     13240
     13236     13235     13237     13237     13240     13241     13237     13240     13242
     13237     13240     13243     13238     13237     13239     13238     13237     13240
     13239     13237     13240     13240     13243     13244     13240     13243     13245
     13240     13243     13246     13241     13240     13242     13241     13240     13243
     13242     13240     13243     13243     13246     13247     13243     13246     13248
     13243     13246     13249     13244     13243     13245     13244     13243     13246
     13245     13243     13246     13246     13249     13250     13246     13249     13251
     13246     13249     13252     13247     13246     13248     13247     13246     13249
     13248     13246     13249     13249     13252     13253     13249     13252     13254
     13249     13252     13255     13250     13249     13251     13250     13249     13252
     13251     13249     13252     13252     13255     13256     13252     13255     13257
     13252     13255     13258     13253     13252     13254     13253     13252     13255
     13254     13252     13255     13255     13258     13259     13255     13258     13260
     13255     13258     13261     13256     13255     13257     13256     13255     13258
     13257     13255     13258     13259     13258     13260     13259     13258     13261
     13260     13258     13261     13262     13263     13264     13262     13263     13265
     13262     13263     13266     13262     13267     13268     13262     13267     13269
     13262     13267     13270     13262     13271     13272     13262     13271     13273
     13262     13271     13274     13262     13275     13276     13262     13275     13277
     13262     13275     13278     13263     13262     13267     13263     13262     13271
     13263     13262     13275     13264     13263     13265     13264     13263     13266
     13265     13263     13266     13267     13262     13271     13267     13262     13275
     13268     13267     13269     13268     13267     13270     13269     13267     13270
     13271     13262     13275     13272     13271     13273     13272     13271     13274
     13273     13271     13274     13275     13278     13279     13275     13278     13280
     13275     13278     13285     13276     13275     13277     13276     13275     13278
     13277     13275     13278     13278     13285     13281     13279     13278     13280
     13279     13278     13285     13280     13278     13285     13281     13284     13286
     13282     13281     13283     13282     13281     13284     13282     13281     13285
     13283     13281     13284     13283     13281     13285     13284     13281     13285
     13284     13286     13287     13284     13286     13288     13284     13286     13291
     13286     13291     13289     13286     13291     13292     13286     13291     13293
     13287     13286     13288     13287     13286     13291     13288     13286     13291
     13289     13291     13292     13289     13291     13293     13289     13341     13342
     13289     13341     13343     13290     13289     13291     13290     13289     13341
     13291     13289     13341     13291     13293     13294     13291     13293     13295
     13291     13293     13297     13292     13291     13293     13293     13295     13296
     13293     13297     13298     13293     13297     13299     13294     13293     13295
     13294     13293     13297     13295     13293     13297     13297     13299     13300
     13297     13299     13301     13298     13297     13299     13299     13301     13302
     13299     13301     13303     13299     13301     13304     13300     13299     13301
     13301     13304     13305     13301     13304     13306     13301     13304     13307
     13302     13301     13303     13302     13301     13304     13303     13301     13304
     13304     13307     13308     13304     13307     13309     13304     13307     13310
     13305     13304     13306     13305     13304     13307     13306     13304     13307
     13307     13310     13311     13307     13310     13312     13307     13310     13313
     13308     13307     13309     13308     13307     13310     13309     13307     13310
     13310     13313     13314     13310     13313     13315     13310     13313     13316
     13311     13310     13312     13311     13310     13313     13312     13310     13313
     13313     13316     13317     13313     13316     13318     13313     13316     13319
     13314     13313     13315     13314     13313     13316     13315     13313     13316
     13316     13319     13320     13316     13319     13321     13316     13319     13322
     13317     13316     13318     13317     13316     13319     13318     13316     13319
     13319     13322     13323     13319     13322     13324     13319     13322     13325
     13320     13319     13321     13320     13319     13322     13321     13319     13322
     13322     13325     13326     13322     13325     13327     13322     13325     13328
     13323     13322     13324     13323     13322     13325     13324     13322     13325
     13325     13328     13329     13325     13328     13330     13325     13328     13331
     13326     13325     13327     13326     13325     13328     13327     13325     13328
     13328     13331     13332     13328     13331     13333     13328     13331     13334
     13329     13328     13330     13329     13328     13331     13330     13328     13331
     13331     13334     13335     13331     13334     13336     13331     13334     13337
     13332     13331     13333     13332     13331     13334     13333     13331     13334
     13334     13337     13338     13334     13337     13339     13334     13337     13340
     13335     13334     13336     13335     13334     13337     13336     13334     13337
     13338     13337     13339     13338     13337     13340     13339     13337     13340
     13341     13343     13344     13341     13343     13345     13341     13343     13346
     13342     13341     13343     13343     13346     13347     13343     13346     13348
     13343     13346     13349     13344     13343     13345     13344     13343     13346
     13345     13343     13346     13346     13349     13350     13346     13349     13351
     13346     13349     13352     13347     13346     13348     13347     13346     13349
     13348     13346     13349     13349     13352     13353     13349     13352     13354
     13349     13352     13355     13350     13349     13351     13350     13349     13352
     13351     13349     13352     13352     13355     13356     13352     13355     13357
     13352     13355     13358     13353     13352     13354     13353     13352     13355
     13354     13352     13355     13355     13358     13359     13355     13358     13360
     13355     13358     13361     13356     13355     13357     13356     13355     13358
     13357     13355     13358     13358     13361     13362     13358     13361     13363
     13358     13361     13364     13359     13358     13360     13359     13358     13361
     13360     13358     13361     13361     13364     13365     13361     13364     13366
     13362     13361     13363     13362     13361     13364     13363     13361     13364
     13364     13366     13367     13364     13366     13368     13365     13364     13366
     13366     13368     13369     13366     13368     13370     13366     13368     13371
     13367     13366     13368     13368     13371     13372     13368     13371     13373
     13368     13371     13374     13369     13368     13370     13369     13368     13371
     13370     13368     13371     13371     13374     13375     13371     13374     13376
     13371     13374     13377     13372     13371     13373     13372     13371     13374
     13373     13371     13374     13374     13377     13378     13374     13377     13379
     13374     13377     13380     13375     13374     13376     13375     13374     13377
     13376     13374     13377     13377     13380     13381     13377     13380     13382
     13377     13380     13383     13378     13377     13379     13378     13377     13380
     13379     13377     13380     13380     13383     13384     13380     13383     13385
     13380     13383     13386     13381     13380     13382     13381     13380     13383
     13382     13380     13383     13383     13386     13387     13383     13386     13388
     13383     13386     13389     13384     13383     13385     13384     13383     13386
     13385     13383     13386     13386     13389     13390     13386     13389     13391
     13386     13389     13392     13387     13386     13388     13387     13386     13389
     13388     13386     13389     13390     13389     13391     13390     13389     13392
     13391     13389     13392     13393     13394     13395     13393     13394     13396
     13393     13394     13397     13393     13398     13399     13393     13398     13400
     13393     13398     13401     13393     13402     13403     13393     13402     13404
     13393     13402     13405     13393     13406     13407     13393     13406     13408
     13393     13406     13409     13394     13393     13398     13394     13393     13402
     13394     13393     13406     13395     13394     13396     13395     13394     13397
     13396     13394     13397     13398     13393     13402     13398     13393     13406
     13399     13398     13400     13399     13398     13401     13400     13398     13401
     13402     13393     13406     13403     13402     13404     13403     13402     13405
     13404     13402     13405     13406     13409     13410     13406     13409     13411
     13406     13409     13416     13407     13406     13408     13407     13406     13409
     13408     13406     13409     13409     13416     13412     13410     13409     13411
     13410     13409     13416     13411     13409     13416     13412     13415     13417
     13413     13412     13414     13413     13412     13415     13413     13412     13416
     13414     13412     13415     13414     13412     13416     13415     13412     13416
     13415     13417     13418     13415     13417     13419     13415     13417     13422
     13417     13422     13420     13417     13422     13423     13417     13422     13424
     13418     13417     13419     13418     13417     13422     13419     13417     13422
     13420     13422     13423     13420     13422     13424     13420     13472     13473
     13420     13472     13474     13421     13420     13422     13421     13420     13472
     13422     13420     13472     13422     13424     13425     13422     13424     13426
     13422     13424     13428     13423     13422     13424     13424     13426     13427
     13424     13428     13429     13424     13428     13430     13425     13424     13426
     13425     13424     13428     13426     13424     13428     13428     13430     13431
     13428     13430     13432     13429     13428     13430     13430     13432     13433
     13430     13432     13434     13430     13432     13435     13431     13430     13432
     13432     13435     13436     13432     13435     13437     13432     13435     13438
     13433     13432     13434     13433     13432     13435     13434     13432     13435
     13435     13438     13439     13435     13438     13440     13435     13438     13441
     13436     13435     13437     13436     13435     13438     13437     13435     13438
     13438     13441     13442     13438     13441     13443     13438     13441     13444
     13439     13438     13440     13439     13438     13441     13440     13438     13441
     13441     13444     13445     13441     13444     13446     13441     13444     13447
     13442     13441     13443     13442     13441     13444     13443     13441     13444
     13444     13447     13448     13444     13447     13449     13444     13447     13450
     13445     13444     13446     13445     13444     13447     13446     13444     13447
     13447     13450     13451     13447     13450     13452     13447     13450     13453
     13448     13447     13449     13448     13447     13450     13449     13447     13450
     13450     13453     13454     13450     13453     13455     13450     13453     13456
     13451     13450     13452     13451     13450     13453     13452     13450     13453
     13453     13456     13457     13453     13456     13458     13453     13456     13459
     13454     13453     13455     13454     13453     13456     13455     13453     13456
     13456     13459     13460     13456     13459     13461     13456     13459     13462
     13457     13456     13458     13457     13456     13459     13458     13456     13459
     13459     13462     13463     13459     13462     13464     13459     13462     13465
     13460     13459     13461     13460     13459     13462     13461     13459     13462
     13462     13465     13466     13462     13465     13467     13462     13465     13468
     13463     13462     13464     13463     13462     13465     13464     13462     13465
     13465     13468     13469     13465     13468     13470     13465     13468     13471
     13466     13465     13467     13466     13465     13468     13467     13465     13468
     13469     13468     13470     13469     13468     13471     13470     13468     13471
     13472     13474     13475     13472     13474     13476     13472     13474     13477
     13473     13472     13474     13474     13477     13478     13474     13477     13479
     13474     13477     13480     13475     13474     13476     13475     13474     13477
     13476     13474     13477     13477     13480     13481     13477     13480     13482
     13477     13480     13483     13478     13477     13479     13478     13477     13480
     13479     13477     13480     13480     13483     13484     13480     13483     13485
     13480     13483     13486     13481     13480     13482     13481     13480     13483
     13482     13480     13483     13483     13486     13487     13483     13486     13488
     13483     13486     13489     13484     13483     13485     13484     13483     13486
     13485     13483     13486     13486     13489     13490     13486     13489     13491
     13486     13489     13492     13487     13486     13488     13487     13486     13489
     13488     13486     13489     13489     13492     13493     13489     13492     13494
     13489     13492     13495     13490     13489     13491     13490     13489     13492
     13491     13489     13492     13492     13495     13496     13492     13495     13497
     13493     13492     13494     13493     13492     13495     13494     13492     13495
     13495     13497     13498     13495     13497     13499     13496     13495     13497
     13497     13499     13500     13497     13499     13501     13497     13499     13502
     13498     13497     13499     13499     13502     13503     13499     13502     13504
     13499     13502     13505     13500     13499     13501     13500     13499     13502
     13501     13499     13502     13502     13505     13506     13502     13505     13507
     13502     13505     13508     13503     13502     13504     13503     13502     13505
     13504     13502     13505     13505     13508     13509     13505     13508     13510
     13505     13508     13511     13506     13505     13507     13506     13505     13508
     13507     13505     13508     13508     13511     13512     13508     13511     13513
     13508     13511     13514     13509     13508     13510     13509     13508     13511
     13510     13508     13511     13511     13514     13515     13511     13514     13516
     13511     13514     13517     13512     13511     13513     13512     13511     13514
     13513     13511     13514     13514     13517     13518     13514     13517     13519
     13514     13517     13520     13515     13514     13516     13515     13514     13517
     13516     13514     13517     13517     13520     13521     13517     13520     13522
     13517     13520     13523     13518     13517     13519     13518     13517     13520
     13519     13517     13520     13521     13520     13522     13521     13520     13523
     13522     13520     13523     13524     13525     13526     13524     13525     13527
     13524     13525     13528     13524     13529     13530     13524     13529     13531
     13524     13529     13532     13524     13533     13534     13524     13533     13535
     13524     13533     13536     13524     13537     13538     13524     13537     13539
     13524     13537     13540     13525     13524     13529     13525     13524     13533
     13525     13524     13537     13526     13525     13527     13526     13525     13528
     13527     13525     13528     13529     13524     13533     13529     13524     13537
     13530     13529     13531     13530     13529     13532     13531     13529     13532
     13533     13524     13537     13534     13533     13535     13534     13533     13536
     13535     13533     13536     13537     13540     13541     13537     13540     13542
     13537     13540     13547     13538     13537     13539     13538     13537     13540
     13539     13537     13540     13540     13547     13543     13541     13540     13542
     13541     13540     13547     13542     13540     13547     13543     13546     13548
     13544     13543     13545     13544     13543     13546     13544     13543     13547
     13545     13543     13546     13545     13543     13547     13546     13543     13547
     13546     13548     13549     13546     13548     13550     13546     13548     13553
     13548     13553     13551     13548     13553     13554     13548     13553     13555
     13549     13548     13550     13549     13548     13553     13550     13548     13553
     13551     13553     13554     13551     13553     13555     13551     13603     13604
     13551     13603     13605     13552     13551     13553     13552     13551     13603
     13553     13551     13603     13553     13555     13556     13553     13555     13557
     13553     13555     13559     13554     13553     13555     13555     13557     13558
     13555     13559     13560     13555     13559     13561     13556     13555     13557
     13556     13555     13559     13557     13555     13559     13559     13561     13562
     13559     13561     13563     13560     13559     13561     13561     13563     13564
     13561     13563     13565     13561     13563     13566     13562     13561     13563
     13563     13566     13567     13563     13566     13568     13563     13566     13569
     13564     13563     13565     13564     13563     13566     13565     13563     13566
     13566     13569     13570     13566     13569     13571     13566     13569     13572
     13567     13566     13568     13567     13566     13569     13568     13566     13569
     13569     13572     13573     13569     13572     13574     13569     13572     13575
     13570     13569     13571     13570     13569     13572     13571     13569     13572
     13572     13575     13576     13572     13575     13577     13572     13575     13578
     13573     13572     13574     13573     13572     13575     13574     13572     13575
     13575     13578     13579     13575     13578     13580     13575     13578     13581
     13576     13575     13577     13576     13575     13578     13577     13575     13578
     13578     13581     13582     13578     13581     13583     13578     13581     13584
     13579     13578     13580     13579     13578     13581     13580     13578     13581
     13581     13584     13585     13581     13584     13586     13581     13584     13587
     13582     13581     13583     13582     13581     13584     13583     13581     13584
     13584     13587     13588     13584     13587     13589     13584     13587     13590
     13585     13584     13586     13585     13584     13587     13586     13584     13587
     13587     13590     13591     13587     13590     13592     13587     13590     13593
     13588     13587     13589     13588     13587     13590     13589     13587     13590
     13590     13593     13594     13590     13593     13595     13590     13593     13596
     13591     13590     13592     13591     13590     13593     13592     13590     13593
     13593     13596     13597     13593     13596     13598     13593     13596     13599
     13594     13593     13595     13594     13593     13596     13595     13593     13596
     13596     13599     13600     13596     13599     13601     13596     13599     13602
     13597     13596     13598     13597     13596     13599     13598     13596     13599
     13600     13599     13601     13600     13599     13602     13601     13599     13602
     13603     13605     13606     13603     13605     13607     13603     13605     13608
     13604     13603     13605     13605     13608     13609     13605     13608     13610
     13605     13608     13611     13606     13605     13607     13606     13605     13608
     13607     13605     13608     13608     13611     13612     13608     13611     13613
     13608     13611     13614     13609     13608     13610     13609     13608     13611
     13610     13608     13611     13611     13614     13615     13611     13614     13616
     13611     13614     13617     13612     13611     13613     13612     13611     13614
     13613     13611     13614     13614     13617     13618     13614     13617     13619
     13614     13617     13620     13615     13614     13616     13615     13614     13617
     13616     13614     13617     13617     13620     13621     13617     13620     13622
     13617     13620     13623     13618     13617     13619     13618     13617     13620
     13619     13617     13620     13620     13623     13624     13620     13623     13625
     13620     13623     13626     13621     13620     13622     13621     13620     13623
     13622     13620     13623     13623     13626     13627     13623     13626     13628
     13624     13623     13625     13624     13623     13626     13625     13623     13626
     13626     13628     13629     13626     13628     13630     13627     13626     13628
     13628     13630     13631     13628     13630     13632     13628     13630     13633
     13629     13628     13630     13630     13633     13634     13630     13633     13635
     13630     13633     13636     13631     13630     13632     13631     13630     13633
     13632     13630     13633     13633     13636     13637     13633     13636     13638
     13633     13636     13639     13634     13633     13635     13634     13633     13636
     13635     13633     13636     13636     13639     13640     13636     13639     13641
     13636     13639     13642     13637     13636     13638     13637     13636     13639
     13638     13636     13639     13639     13642     13643     13639     13642     13644
     13639     13642     13645     13640     13639     13641     13640     13639     13642
     13641     13639     13642     13642     13645     13646     13642     13645     13647
     13642     13645     13648     13643     13642     13644     13643     13642     13645
     13644     13642     13645     13645     13648     13649     13645     13648     13650
     13645     13648     13651     13646     13645     13647     13646     13645     13648
     13647     13645     13648     13648     13651     13652     13648     13651     13653
     13648     13651     13654     13649     13648     13650     13649     13648     13651
     13650     13648     13651     13652     13651     13653     13652     13651     13654
     13653     13651     13654     13655     13656     13657     13655     13656     13658
     13655     13656     13671     13655     13659     13660     13655     13659     13661
     13655     13659     13662     13655     13663     13664     13655     13663     13665
     13655     13663     13666     13655     13667     13668     13655     13667     13669
     13655     13667     13670     13656     13655     13659     13656     13655     13663
     13656     13655     13667     13656     13671     13672     13656     13671     13673
     13656     13671     13677     13657     13656     13658     13657     13656     13671
     13658     13656     13671     13659     13655     13663     13659     13655     13667
     13660     13659     13661     13660     13659     13662     13661     13659     13662
     13663     13655     13667     13664     13663     13665     13664     13663     13666
     13665     13663     13666     13668     13667     13669     13668     13667     13670
     13669     13667     13670     13671     13677     13674     13672     13671     13673
     13672     13671     13677     13673     13671     13677     13674     13678     13679
     13675     13674     13676     13675     13674     13677     13675     13674     13678
     13676     13674     13677     13676     13674     13678     13677     13674     13678
     13678     13679     13680     13678     13679     13681     13678     13679     13682
     13679     13682     13683     13679     13682     13684     13679     13682     13690
     13680     13679     13681     13680     13679     13682     13681     13679     13682
     13682     13684     13685     13682     13690     13691     13682     13690     13692
     13682     13690     13693     13683     13682     13684     13683     13682     13690
     13684     13682     13690     13684     13685     13686     13684     13685     13687
     13685     13687     13688     13685     13687     13689     13685     13687     13699
     13686     13685     13687     13687     13699     13700     13687     13699     13701
     13687     13699     13702     13688     13687     13689     13688     13687     13699
     13689     13687     13699     13690     13693     13694     13691     13690     13692
     13691     13690     13693     13692     13690     13693     13693     13694     13695
     13693     13694     13696     13694     13696     13697     13694     13696     13698
     13694     13696     13746     13695     13694     13696     13696     13746     13747
     13696     13746     13748     13696     13746     13749     13697     13696     13698
     13697     13696     13746     13698     13696     13746     13699     13702     13703
     13699     13702     13704     13699     13702     13705     13700     13699     13701
     13700     13699     13702     13701     13699     13702     13702     13705     13706
     13702     13705     13707     13703     13702     13704     13703     13702     13705
     13704     13702     13705     13705     13707     13708     13705     13707     13709
     13706     13705     13707     13707     13709     13710     13707     13709     13711
     13707     13709     13712     13708     13707     13709     13709     13712     13713
     13709     13712     13714     13710     13709     13711     13710     13709     13712
     13711     13709     13712     13712     13714     13715     13712     13714     13716
     13713     13712     13714     13714     13716     13717     13714     13716     13718
     13714     13716     13719     13715     13714     13716     13716     13719     13720
     13716     13719     13721     13717     13716     13718     13717     13716     13719
     13718     13716     13719     13719     13721     13722     13719     13721     13723
     13720     13719     13721     13721     13723     13724     13721     13723     13725
     13721     13723     13726     13722     13721     13723     13723     13726     13727
     13723     13726     13728     13724     13723     13725     13724     13723     13726
     13725     13723     13726     13726     13728     13729     13726     13728     13730
     13727     13726     13728     13728     13730     13731     13728     13730     13732
     13728     13730     13733     13729     13728     13730     13730     13733     13734
     13730     13733     13735     13730     13733     13736     13731     13730     13732
     13731     13730     13733     13732     13730     13733     13733     13736     13737
     13733     13736     13738     13733     13736     13739     13734     13733     13735
     13734     13733     13736     13735     13733     13736     13736     13739     13740
     13736     13739     13741     13736     13739     13742     13737     13736     13738
     13737     13736     13739     13738     13736     13739     13739     13742     13743
     13739     13742     13744     13739     13742     13745     13740     13739     13741
     13740     13739     13742     13741     13739     13742     13743     13742     13744
     13743     13742     13745     13744     13742     13745     13746     13749     13750
     13746     13749     13751     13746     13749     13752     13747     13746     13748
     13747     13746     13749     13748     13746     13749     13749     13752     13753
     13749     13752     13754     13749     13752     13755     13750     13749     13751
     13750     13749     13752     13751     13749     13752     13752     13755     13756
     13752     13755     13757     13752     13755     13758     13753     13752     13754
     13753     13752     13755     13754     13752     13755     13755     13758     13759
     13755     13758     13760     13755     13758     13761     13756     13755     13757
     13756     13755     13758     13757     13755     13758     13758     13761     13762
     13758     13761     13763     13758     13761     13764     13759     13758     13760
     13759     13758     13761     13760     13758     13761     13761     13764     13765
     13761     13764     13766     13761     13764     13767     13762     13761     13763
     13762     13761     13764     13763     13761     13764     13764     13767     13768
     13764     13767     13769     13764     13767     13770     13765     13764     13766
     13765     13764     13767     13766     13764     13767     13767     13770     13771
     13767     13770     13772     13767     13770     13773     13768     13767     13769
     13768     13767     13770     13769     13767     13770     13770     13773     13774
     13770     13773     13775     13770     13773     13776     13771     13770     13772
     13771     13770     13773     13772     13770     13773     13773     13776     13777
     13773     13776     13778     13773     13776     13779     13774     13773     13775
     13774     13773     13776     13775     13773     13776     13776     13779     13780
     13776     13779     13781     13776     13779     13782     13777     13776     13778
     13777     13776     13779     13778     13776     13779     13779     13782     13783
     13779     13782     13784     13779     13782     13785     13780     13779     13781
     13780     13779     13782     13781     13779     13782     13782     13785     13786
     13782     13785     13787     13782     13785     13788     13783     13782     13784
     13783     13782     13785     13784     13782     13785     13785     13788     13789
     13785     13788     13790     13785     13788     13791     13786     13785     13787
     13786     13785     13788     13787     13785     13788     13788     13791     13792
     13788     13791     13793     13788     13791     13794     13789     13788     13790
     13789     13788     13791     13790     13788     13791     13792     13791     13793
     13792     13791     13794     13793     13791     13794     13795     13797     13798
     13795     13799     13800     13795     13799     13801     13795     13799     13802
     13795     13841     13838     13795     13841     13842     13795     13841     13843
     13796     13795     13797     13796     13795     13799     13796     13795     13841
     13797     13795     13799     13797     13795     13841     13799     13795     13841
     13799     13802     13803     13799     13802     13833     13800     13799     13801
     13800     13799     13802     13801     13799     13802     13802     13803     13804
     13802     13803     13805     13802     13833     13831     13802     13833     13834
     13802     13833     13838     13803     13802     13833     13803     13805     13806
     13803     13805     13807     13803     13805     13808     13804     13803     13805
     13805     13808     13809     13805     13808     13810     13805     13808     13831
     13806     13805     13807     13806     13805     13808     13807     13805     13808
     13808     13810     13811     13808     13810     13812     13808     13810     13820
     13808     13831     13828     13808     13831     13832     13808     13831     13833
     13809     13808     13810     13809     13808     13831     13810     13808     13831
     13810     13812     13813     13810     13812     13814     13810     13812     13815
     13810     13820     13818     13810     13820     13821     13810     13820     13825
     13811     13810     13812     13811     13810     13820     13812     13810     13820
     13812     13815     13816     13812     13815     13817     13812     13815     13818
     13813     13812     13814     13813     13812     13815     13814     13812     13815
     13815     13818     13819     13815     13818     13820     13815     13818     13844
     13816     13815     13817     13816     13815     13818     13817     13815     13818
     13818     13820     13821     13818     13820     13825     13818     13844     13845
     13818     13844     13846     13818     13844     13850     13819     13818     13820
     13819     13818     13844     13820     13818     13844     13820     13821     13822
     13820     13821     13823     13820     13821     13824     13820     13825     13826
     13820     13825     13827     13820     13825     13828     13821     13820     13825
     13822     13821     13823     13822     13821     13824     13823     13821     13824
     13825     13828     13829     13825     13828     13830     13825     13828     13831
     13826     13825     13827     13826     13825     13828     13827     13825     13828
     13828     13831     13832     13828     13831     13833     13829     13828     13830
     13829     13828     13831     13830     13828     13831     13831     13833     13834
     13831     13833     13838     13832     13831     13833     13833     13834     13835
     13833     13834     13836     13833     13834     13837     13833     13838     13839
     13833     13838     13840     13833     13838     13841     13834     13833     13838
     13835     13834     13836     13835     13834     13837     13836     13834     13837
     13838     13841     13842     13838     13841     13843     13839     13838     13840
     13839     13838     13841     13840     13838     13841     13842     13841     13843
     13844     13846     13847     13844     13846     13848     13844     13846     13849
     13844     13850     13851     13844     13850     13852     13844     13850     13853
     13845     13844     13846     13845     13844     13850     13846     13844     13850
     13847     13846     13848     13847     13846     13849     13848     13846     13849
     13850     13853     13854     13850     13853     13855     13850     13853     13856
     13851     13850     13852     13851     13850     13853     13852     13850     13853
     13853     13856     13857     13853     13856     13858     13853     13856     13859
     13854     13853     13855     13854     13853     13856     13855     13853     13856
     13856     13859     13860     13856     13859     13861     13856     13859     13865
     13857     13856     13858     13857     13856     13859     13858     13856     13859
     13859     13861     13862     13859     13861     13863     13859     13861     13864
     13859     13865     13866     13859     13865     13867     13859     13865     13868
     13860     13859     13861     13860     13859     13865     13861     13859     13865
     13862     13861     13863     13862     13861     13864     13863     13861     13864
     13866     13865     13867     13866     13865     13868     13867     13865     13868
     13869     13873     13874     13869     13873     13875     13869     13873     13876
     13870     13869     13871     13870     13869     13872     13870     13869     13873
     13871     13869     13872     13871     13869     13873     13872     13869     13873
     13873     13876     13877     13873     13876     13878     13873     13876     13882
     13874     13873     13875     13874     13873     13876     13875     13873     13876
     13876     13882     13879     13877     13876     13878     13877     13876     13882
     13878     13876     13882     13879     13883     13884     13880     13879     13881
     13880     13879     13882     13880     13879     13883     13881     13879     13882
     13881     13879     13883     13882     13879     13883     13883     13884     13885
     13883     13884     13886     13883     13884     13887     13884     13887     13888
     13884     13887     13889     13884     13887     13895     13885     13884     13886
     13885     13884     13887     13886     13884     13887     13887     13889     13890
     13887     13895     13896     13887     13895     13897     13887     13895     13898
     13888     13887     13889     13888     13887     13895     13889     13887     13895
     13889     13890     13891     13889     13890     13892     13890     13892     13893
     13890     13892     13894     13890     13892     13904     13891     13890     13892
     13892     13904     13905     13892     13904     13906     13892     13904     13907
     13893     13892     13894     13893     13892     13904     13894     13892     13904
     13895     13898     13899     13896     13895     13897     13896     13895     13898
     13897     13895     13898     13898     13899     13900     13898     13899     13901
     13899     13901     13902     13899     13901     13903     13899     13901     13951
     13900     13899     13901     13901     13951     13952     13901     13951     13953
     13901     13951     13954     13902     13901     13903     13902     13901     13951
     13903     13901     13951     13904     13907     13908     13904     13907     13909
     13904     13907     13910     13905     13904     13906     13905     13904     13907
     13906     13904     13907     13907     13910     13911     13907     13910     13912
     13908     13907     13909     13908     13907     13910     13909     13907     13910
     13910     13912     13913     13910     13912     13914     13911     13910     13912
     13912     13914     13915     13912     13914     13916     13912     13914     13917
     13913     13912     13914     13914     13917     13918     13914     13917     13919
     13915     13914     13916     13915     13914     13917     13916     13914     13917
     13917     13919     13920     13917     13919     13921     13918     13917     13919
     13919     13921     13922     13919     13921     13923     13919     13921     13924
     13920     13919     13921     13921     13924     13925     13921     13924     13926
     13922     13921     13923     13922     13921     13924     13923     13921     13924
     13924     13926     13927     13924     13926     13928     13925     13924     13926
     13926     13928     13929     13926     13928     13930     13926     13928     13931
     13927     13926     13928     13928     13931     13932     13928     13931     13933
     13929     13928     13930     13929     13928     13931     13930     13928     13931
     13931     13933     13934     13931     13933     13935     13932     13931     13933
     13933     13935     13936     13933     13935     13937     13933     13935     13938
     13934     13933     13935     13935     13938     13939     13935     13938     13940
     13935     13938     13941     13936     13935     13937     13936     13935     13938
     13937     13935     13938     13938     13941     13942     13938     13941     13943
     13938     13941     13944     13939     13938     13940     13939     13938     13941
     13940     13938     13941     13941     13944     13945     13941     13944     13946
     13941     13944     13947     13942     13941     13943     13942     13941     13944
     13943     13941     13944     13944     13947     13948     13944     13947     13949
     13944     13947     13950     13945     13944     13946     13945     13944     13947
     13946     13944     13947     13948     13947     13949     13948     13947     13950
     13949     13947     13950     13951     13954     13955     13951     13954     13956
     13951     13954     13957     13952     13951     13953     13952     13951     13954
     13953     13951     13954     13954     13957     13958     13954     13957     13959
     13954     13957     13960     13955     13954     13956     13955     13954     13957
     13956     13954     13957     13957     13960     13961     13957     13960     13962
     13957     13960     13963     13958     13957     13959     13958     13957     13960
     13959     13957     13960     13960     13963     13964     13960     13963     13965
     13960     13963     13966     13961     13960     13962     13961     13960     13963
     13962     13960     13963     13963     13966     13967     13963     13966     13968
     13963     13966     13969     13964     13963     13965     13964     13963     13966
     13965     13963     13966     13966     13969     13970     13966     13969     13971
     13966     13969     13972     13967     13966     13968     13967     13966     13969
     13968     13966     13969     13969     13972     13973     13969     13972     13974
     13969     13972     13975     13970     13969     13971     13970     13969     13972
     13971     13969     13972     13972     13975     13976     13972     13975     13977
     13972     13975     13978     13973     13972     13974     13973     13972     13975
     13974     13972     13975     13975     13978     13979     13975     13978     13980
     13975     13978     13981     13976     13975     13977     13976     13975     13978
     13977     13975     13978     13978     13981     13982     13978     13981     13983
     13978     13981     13984     13979     13978     13980     13979     13978     13981
     13980     13978     13981     13981     13984     13985     13981     13984     13986
     13981     13984     13987     13982     13981     13983     13982     13981     13984
     13983     13981     13984     13984     13987     13988     13984     13987     13989
     13984     13987     13990     13985     13984     13986     13985     13984     13987
     13986     13984     13987     13987     13990     13991     13987     13990     13992
     13987     13990     13993     13988     13987     13989     13988     13987     13990
     13989     13987     13990     13990     13993     13994     13990     13993     13995
     13990     13993     13996     13991     13990     13992     13991     13990     13993
     13992     13990     13993     13993     13996     13997     13993     13996     13998
     13993     13996     13999     13994     13993     13995     13994     13993     13996
     13995     13993     13996     13997     13996     13998     13997     13996     13999
     13998     13996     13999     14000     14001     14002     14000     14001     14003
     14000     14001     14004     14000     14005     14006     14000     14005     14007
     14000     14005     14008     14000     14009     14010     14000     14009     14011
     14000     14009     14012     14000     14013     14014     14000     14013     14015
     14000     14013     14016     14001     14000     14005     14001     14000     14009
     14001     14000     14013     14002     14001     14003     14002     14001     14004
     14003     14001     14004     14005     14000     14009     14005     14000     14013
     14006     14005     14007     14006     14005     14008     14007     14005     14008
     14009     14000     14013     14010     14009     14011     14010     14009     14012
     14011     14009     14012     14013     14016     14017     14013     14016     14018
     14013     14016     14022     14014     14013     14015     14014     14013     14016
     14015     14013     14016     14016     14022     14019     14017     14016     14018
     14017     14016     14022     14018     14016     14022     14019     14023     14024
     14020     14019     14021     14020     14019     14022     14020     14019     14023
     14021     14019     14022     14021     14019     14023     14022     14019     14023
     14023     14024     14025     14023     14024     14026     14023     14024     14027
     14024     14027     14028     14024     14027     14029     14024     14027     14035
     14025     14024     14026     14025     14024     14027     14026     14024     14027
     14027     14029     14030     14027     14035     14036     14027     14035     14037
     14027     14035     14038     14028     14027     14029     14028     14027     14035
     14029     14027     14035     14029     14030     14031     14029     14030     14032
     14030     14032     14033     14030     14032     14034     14030     14032     14044
     14031     14030     14032     14032     14044     14045     14032     14044     14046
     14032     14044     14047     14033     14032     14034     14033     14032     14044
     14034     14032     14044     14035     14038     14039     14036     14035     14037
     14036     14035     14038     14037     14035     14038     14038     14039     14040
     14038     14039     14041     14039     14041     14042     14039     14041     14043
     14039     14041     14089     14040     14039     14041     14041     14089     14090
     14041     14089     14091     14041     14089     14092     14042     14041     14043
     14042     14041     14089     14043     14041     14089     14044     14047     14048
     14044     14047     14049     14044     14047     14050     14045     14044     14046
     14045     14044     14047     14046     14044     14047     14047     14050     14051
     14047     14050     14052     14047     14050     14053     14048     14047     14049
     14048     14047     14050     14049     14047     14050     14050     14053     14054
     14050     14053     14055     14050     14053     14056     14051     14050     14052
     14051     14050     14053     14052     14050     14053     14053     14056     14057
     14053     14056     14058     14053     14056     14059     14054     14053     14055
     14054     14053     14056     14055     14053     14056     14056     14059     14060
     14056     14059     14061     14056     14059     14062     14057     14056     14058
     14057     14056     14059     14058     14056     14059     14059     14062     14063
     14059     14062     14064     14060     14059     14061     14060     14059     14062
     14061     14059     14062     14062     14064     14065     14062     14064     14066
     14063     14062     14064     14064     14066     14067     14064     14066     14068
     14064     14066     14069     14065     14064     14066     14066     14069     14070
     14066     14069     14071     14067     14066     14068     14067     14066     14069
     14068     14066     14069     14069     14071     14072     14069     14071     14073
     14070     14069     14071     14071     14073     14074     14071     14073     14075
     14071     14073     14076     14072     14071     14073     14073     14076     14077
     14073     14076     14078     14073     14076     14079     14074     14073     14075
     14074     14073     14076     14075     14073     14076     14076     14079     14080
     14076     14079     14081     14076     14079     14082     14077     14076     14078
     14077     14076     14079     14078     14076     14079     14079     14082     14083
     14079     14082     14084     14079     14082     14085     14080     14079     14081
     14080     14079     14082     14081     14079     14082     14082     14085     14086
     14082     14085     14087     14082     14085     14088     14083     14082     14084
     14083     14082     14085     14084     14082     14085     14086     14085     14087
     14086     14085     14088     14087     14085     14088     14089     14092     14093
     14089     14092     14094     14089     14092     14095     14090     14089     14091
     14090     14089     14092     14091     14089     14092     14092     14095     14096
     14092     14095     14097     14092     14095     14098     14093     14092     14094
     14093     14092     14095     14094     14092     14095     14095     14098     14099
     14095     14098     14100     14095     14098     14101     14096     14095     14097
     14096     14095     14098     14097     14095     14098     14098     14101     14102
     14098     14101     14103     14098     14101     14104     14099     14098     14100
     14099     14098     14101     14100     14098     14101     14101     14104     14105
     14101     14104     14106     14101     14104     14107     14102     14101     14103
     14102     14101     14104     14103     14101     14104     14104     14107     14108
     14104     14107     14109     14104     14107     14110     14105     14104     14106
     14105     14104     14107     14106     14104     14107     14107     14110     14111
     14107     14110     14112     14107     14110     14113     14108     14107     14109
     14108     14107     14110     14109     14107     14110     14110     14113     14114
     14110     14113     14115     14110     14113     14116     14111     14110     14112
     14111     14110     14113     14112     14110     14113     14113     14116     14117
     14113     14116     14118     14113     14116     14119     14114     14113     14115
     14114     14113     14116     14115     14113     14116     14116     14119     14120
     14116     14119     14121     14116     14119     14122     14117     14116     14118
     14117     14116     14119     14118     14116     14119     14119     14122     14123
     14119     14122     14124     14119     14122     14125     14120     14119     14121
     14120     14119     14122     14121     14119     14122     14122     14125     14126
     14122     14125     14127     14122     14125     14128     14123     14122     14124
     14123     14122     14125     14124     14122     14125     14125     14128     14129
     14125     14128     14130     14125     14128     14131     14126     14125     14127
     14126     14125     14128     14127     14125     14128     14128     14131     14132
     14128     14131     14133     14128     14131     14134     14129     14128     14130
     14129     14128     14131     14130     14128     14131     14131     14134     14135
     14131     14134     14136     14131     14134     14137     14132     14131     14133
     14132     14131     14134     14133     14131     14134     14135     14134     14136
     14135     14134     14137     14136     14134     14137     14138     14140     14141
     14138     14142     14143     14138     14142     14144     14138     14142     14146
     14138     14158     14154     14138     14158     14159     14138     14158     14163
     14139     14138     14140     14139     14138     14142     14139     14138     14158
     14140     14138     14142     14140     14138     14158     14142     14138     14158
     14142     14144     14145     14142     14146     14147     14142     14146     14148
     14142     14146     14150     14143     14142     14144     14143     14142     14146
     14144     14142     14146     14146     14148     14149     14146     14150     14151
     14146     14150     14152     14146     14150     14154     14147     14146     14148
     14147     14146     14150     14148     14146     14150     14150     14152     14153
     14150     14154     14155     14150     14154     14156     14150     14154     14158
     14151     14150     14152     14151     14150     14154     14152     14150     14154
     14154     14156     14157     14154     14158     14159     14154     14158     14163
     14155     14154     14156     14155     14154     14158     14156     14154     14158
     14158     14163     14160     14159     14158     14163     14160     14164     14165
     14161     14160     14162     14161     14160     14163     14161     14160     14164
     14162     14160     14163     14162     14160     14164     14163     14160     14164
     14164     14165     14166     14164     14165     14167     14164     14165     14168
     14165     14168     14169     14165     14168     14170     14165     14168     14176
     14166     14165     14167     14166     14165     14168     14167     14165     14168
     14168     14170     14171     14168     14176     14177     14168     14176     14178
     14168     14176     14179     14169     14168     14170     14169     14168     14176
     14170     14168     14176     14170     14171     14172     14170     14171     14173
     14171     14173     14174     14171     14173     14175     14171     14173     14185
     14172     14171     14173     14173     14185     14186     14173     14185     14187
     14173     14185     14188     14174     14173     14175     14174     14173     14185
     14175     14173     14185     14176     14179     14180     14177     14176     14178
     14177     14176     14179     14178     14176     14179     14179     14180     14181
     14179     14180     14182     14180     14182     14183     14180     14182     14184
     14180     14182     14232     14181     14180     14182     14182     14232     14233
     14182     14232     14234     14182     14232     14235     14183     14182     14184
     14183     14182     14232     14184     14182     14232     14185     14188     14189
     14185     14188     14190     14185     14188     14191     14186     14185     14187
     14186     14185     14188     14187     14185     14188     14188     14191     14192
     14188     14191     14193     14189     14188     14190     14189     14188     14191
     14190     14188     14191     14191     14193     14194     14191     14193     14195
     14192     14191     14193     14193     14195     14196     14193     14195     14197
     14193     14195     14198     14194     14193     14195     14195     14198     14199
     14195     14198     14200     14196     14195     14197     14196     14195     14198
     14197     14195     14198     14198     14200     14201     14198     14200     14202
     14199     14198     14200     14200     14202     14203     14200     14202     14204
     14200     14202     14205     14201     14200     14202     14202     14205     14206
     14202     14205     14207     14203     14202     14204     14203     14202     14205
     14204     14202     14205     14205     14207     14208     14205     14207     14209
     14206     14205     14207     14207     14209     14210     14207     14209     14211
     14207     14209     14212     14208     14207     14209     14209     14212     14213
     14209     14212     14214     14210     14209     14211     14210     14209     14212
     14211     14209     14212     14212     14214     14215     14212     14214     14216
     14213     14212     14214     14214     14216     14217     14214     14216     14218
     14214     14216     14219     14215     14214     14216     14216     14219     14220
     14216     14219     14221     14216     14219     14222     14217     14216     14218
     14217     14216     14219     14218     14216     14219     14219     14222     14223
     14219     14222     14224     14219     14222     14225     14220     14219     14221
     14220     14219     14222     14221     14219     14222     14222     14225     14226
     14222     14225     14227     14222     14225     14228     14223     14222     14224
     14223     14222     14225     14224     14222     14225     14225     14228     14229
     14225     14228     14230     14225     14228     14231     14226     14225     14227
     14226     14225     14228     14227     14225     14228     14229     14228     14230
     14229     14228     14231     14230     14228     14231     14232     14235     14236
     14232     14235     14237     14232     14235     14238     14233     14232     14234
     14233     14232     14235     14234     14232     14235     14235     14238     14239
     14235     14238     14240     14235     14238     14241     14236     14235     14237
     14236     14235     14238     14237     14235     14238     14238     14241     14242
     14238     14241     14243     14238     14241     14244     14239     14238     14240
     14239     14238     14241     14240     14238     14241     14241     14244     14245
     14241     14244     14246     14241     14244     14247     14242     14241     14243
     14242     14241     14244     14243     14241     14244     14244     14247     14248
     14244     14247     14249     14244     14247     14250     14245     14244     14246
     14245     14244     14247     14246     14244     14247     14247     14250     14251
     14247     14250     14252     14247     14250     14253     14248     14247     14249
     14248     14247     14250     14249     14247     14250     14250     14253     14254
     14250     14253     14255     14250     14253     14256     14251     14250     14252
     14251     14250     14253     14252     14250     14253     14253     14256     14257
     14253     14256     14258     14253     14256     14259     14254     14253     14255
     14254     14253     14256     14255     14253     14256     14256     14259     14260
     14256     14259     14261     14256     14259     14262     14257     14256     14258
     14257     14256     14259     14258     14256     14259     14259     14262     14263
     14259     14262     14264     14259     14262     14265     14260     14259     14261
     14260     14259     14262     14261     14259     14262     14262     14265     14266
     14262     14265     14267     14262     14265     14268     14263     14262     14264
     14263     14262     14265     14264     14262     14265     14265     14268     14269
     14265     14268     14270     14265     14268     14271     14266     14265     14267
     14266     14265     14268     14267     14265     14268     14268     14271     14272
     14268     14271     14273     14268     14271     14274     14269     14268     14270
     14269     14268     14271     14270     14268     14271     14271     14274     14275
     14271     14274     14276     14271     14274     14277     14272     14271     14273
     14272     14271     14274     14273     14271     14274     14274     14277     14278
     14274     14277     14279     14274     14277     14280     14275     14274     14276
     14275     14274     14277     14276     14274     14277     14278     14277     14279
     14278     14277     14280     14279     14277     14280     14281     14285     14286
     14281     14285     14287     14281     14285     14288     14282     14281     14283
     14282     14281     14284     14282     14281     14285     14283     14281     14284
     14283     14281     14285     14284     14281     14285     14285     14288     14289
     14285     14288     14290     14285     14288     14294     14286     14285     14287
     14286     14285     14288     14287     14285     14288     14288     14294     14291
     14289     14288     14290     14289     14288     14294     14290     14288     14294
     14291     14295     14296     14292     14291     14293     14292     14291     14294
     14292     14291     14295     14293     14291     14294     14293     14291     14295
     14294     14291     14295     14295     14296     14297     14295     14296     14298
     14295     14296     14299     14296     14299     14300     14296     14299     14301
     14296     14299     14307     14297     14296     14298     14297     14296     14299
     14298     14296     14299     14299     14301     14302     14299     14307     14308
     14299     14307     14309     14299     14307     14310     14300     14299     14301
     14300     14299     14307     14301     14299     14307     14301     14302     14303
     14301     14302     14304     14302     14304     14305     14302     14304     14306
     14302     14304     14316     14303     14302     14304     14304     14316     14317
     14304     14316     14318     14304     14316     14319     14305     14304     14306
     14305     14304     14316     14306     14304     14316     14307     14310     14311
     14308     14307     14309     14308     14307     14310     14309     14307     14310
     14310     14311     14312     14310     14311     14313     14311     14313     14314
     14311     14313     14315     14311     14313     14363     14312     14311     14313
     14313     14363     14364     14313     14363     14365     14313     14363     14366
     14314     14313     14315     14314     14313     14363     14315     14313     14363
     14316     14319     14320     14316     14319     14321     14316     14319     14322
     14317     14316     14318     14317     14316     14319     14318     14316     14319
     14319     14322     14323     14319     14322     14324     14320     14319     14321
     14320     14319     14322     14321     14319     14322     14322     14324     14325
     14322     14324     14326     14323     14322     14324     14324     14326     14327
     14324     14326     14328     14324     14326     14329     14325     14324     14326
     14326     14329     14330     14326     14329     14331     14327     14326     14328
     14327     14326     14329     14328     14326     14329     14329     14331     14332
     14329     14331     14333     14330     14329     14331     14331     14333     14334
     14331     14333     14335     14331     14333     14336     14332     14331     14333
     14333     14336     14337     14333     14336     14338     14334     14333     14335
     14334     14333     14336     14335     14333     14336     14336     14338     14339
     14336     14338     14340     14337     14336     14338     14338     14340     14341
     14338     14340     14342     14338     14340     14343     14339     14338     14340
     14340     14343     14344     14340     14343     14345     14341     14340     14342
     14341     14340     14343     14342     14340     14343     14343     14345     14346
     14343     14345     14347     14344     14343     14345     14345     14347     14348
     14345     14347     14349     14345     14347     14350     14346     14345     14347
     14347     14350     14351     14347     14350     14352     14347     14350     14353
     14348     14347     14349     14348     14347     14350     14349     14347     14350
     14350     14353     14354     14350     14353     14355     14350     14353     14356
     14351     14350     14352     14351     14350     14353     14352     14350     14353
     14353     14356     14357     14353     14356     14358     14353     14356     14359
     14354     14353     14355     14354     14353     14356     14355     14353     14356
     14356     14359     14360     14356     14359     14361     14356     14359     14362
     14357     14356     14358     14357     14356     14359     14358     14356     14359
     14360     14359     14361     14360     14359     14362     14361     14359     14362
     14363     14366     14367     14363     14366     14368     14363     14366     14369
     14364     14363     14365     14364     14363     14366     14365     14363     14366
     14366     14369     14370     14366     14369     14371     14366     14369     14372
     14367     14366     14368     14367     14366     14369     14368     14366     14369
     14369     14372     14373     14369     14372     14374     14369     14372     14375
     14370     14369     14371     14370     14369     14372     14371     14369     14372
     14372     14375     14376     14372     14375     14377     14372     14375     14378
     14373     14372     14374     14373     14372     14375     14374     14372     14375
     14375     14378     14379     14375     14378     14380     14375     14378     14381
     14376     14375     14377     14376     14375     14378     14377     14375     14378
     14378     14381     14382     14378     14381     14383     14378     14381     14384
     14379     14378     14380     14379     14378     14381     14380     14378     14381
     14381     14384     14385     14381     14384     14386     14381     14384     14387
     14382     14381     14383     14382     14381     14384     14383     14381     14384
     14384     14387     14388     14384     14387     14389     14384     14387     14390
     14385     14384     14386     14385     14384     14387     14386     14384     14387
     14387     14390     14391     14387     14390     14392     14387     14390     14393
     14388     14387     14389     14388     14387     14390     14389     14387     14390
     14390     14393     14394     14390     14393     14395     14390     14393     14396
     14391     14390     14392     14391     14390     14393     14392     14390     14393
     14393     14396     14397     14393     14396     14398     14393     14396     14399
     14394     14393     14395     14394     14393     14396     14395     14393     14396
     14396     14399     14400     14396     14399     14401     14396     14399     14402
     14397     14396     14398     14397     14396     14399     14398     14396     14399
     14399     14402     14403     14399     14402     14404     14399     14402     14405
     14400     14399     14401     14400     14399     14402     14401     14399     14402
     14402     14405     14406     14402     14405     14407     14402     14405     14408
     14403     14402     14404     14403     14402     14405     14404     14402     14405
     14405     14408     14409     14405     14408     14410     14405     14408     14411
     14406     14405     14407     14406     14405     14408     14407     14405     14408
     14409     14408     14410     14409     14408     14411     14410     14408     14411
     14412     14413     14414     14412     14413     14415     14412     14413     14416
     14412     14417     14418     14412     14417     14419     14412     14417     14420
     14412     14421     14422     14412     14421     14423     14412     14421     14424
     14412     14425     14426     14412     14425     14427     14412     14425     14428
     14413     14412     14417     14413     14412     14421     14413     14412     14425
     14414     14413     14415     14414     14413     14416     14415     14413     14416
     14417     14412     14421     14417     14412     14425     14418     14417     14419
     14418     14417     14420     14419     14417     14420     14421     14412     14425
     14422     14421     14423     14422     14421     14424     14423     14421     14424
     14425     14428     14429     14425     14428     14430     14425     14428     14434
     14426     14425     14427     14426     14425     14428     14427     14425     14428
     14428     14434     14431     14429     14428     14430     14429     14428     14434
     14430     14428     14434     14431     14435     14436     14432     14431     14433
     14432     14431     14434     14432     14431     14435     14433     14431     14434
     14433     14431     14435     14434     14431     14435     14435     14436     14437
     14435     14436     14438     14435     14436     14439     14436     14439     14440
     14436     14439     14441     14436     14439     14447     14437     14436     14438
     14437     14436     14439     14438     14436     14439     14439     14441     14442
     14439     14447     14448     14439     14447     14449     14439     14447     14450
     14440     14439     14441     14440     14439     14447     14441     14439     14447
     14441     14442     14443     14441     14442     14444     14442     14444     14445
     14442     14444     14446     14442     14444     14456     14443     14442     14444
     14444     14456     14457     14444     14456     14458     14444     14456     14459
     14445     14444     14446     14445     14444     14456     14446     14444     14456
     14447     14450     14451     14448     14447     14449     14448     14447     14450
     14449     14447     14450     14450     14451     14452     14450     14451     14453
     14451     14453     14454     14451     14453     14455     14451     14453     14501
     14452     14451     14453     14453     14501     14502     14453     14501     14503
     14453     14501     14504     14454     14453     14455     14454     14453     14501
     14455     14453     14501     14456     14459     14460     14456     14459     14461
     14456     14459     14462     14457     14456     14458     14457     14456     14459
     14458     14456     14459     14459     14462     14463     14459     14462     14464
     14459     14462     14465     14460     14459     14461     14460     14459     14462
     14461     14459     14462     14462     14465     14466     14462     14465     14467
     14462     14465     14468     14463     14462     14464     14463     14462     14465
     14464     14462     14465     14465     14468     14469     14465     14468     14470
     14465     14468     14471     14466     14465     14467     14466     14465     14468
     14467     14465     14468     14468     14471     14472     14468     14471     14473
     14468     14471     14474     14469     14468     14470     14469     14468     14471
     14470     14468     14471     14471     14474     14475     14471     14474     14476
     14472     14471     14473     14472     14471     14474     14473     14471     14474
     14474     14476     14477     14474     14476     14478     14475     14474     14476
     14476     14478     14479     14476     14478     14480     14476     14478     14481
     14477     14476     14478     14478     14481     14482     14478     14481     14483
     14479     14478     14480     14479     14478     14481     14480     14478     14481
     14481     14483     14484     14481     14483     14485     14482     14481     14483
     14483     14485     14486     14483     14485     14487     14483     14485     14488
     14484     14483     14485     14485     14488     14489     14485     14488     14490
     14485     14488     14491     14486     14485     14487     14486     14485     14488
     14487     14485     14488     14488     14491     14492     14488     14491     14493
     14488     14491     14494     14489     14488     14490     14489     14488     14491
     14490     14488     14491     14491     14494     14495     14491     14494     14496
     14491     14494     14497     14492     14491     14493     14492     14491     14494
     14493     14491     14494     14494     14497     14498     14494     14497     14499
     14494     14497     14500     14495     14494     14496     14495     14494     14497
     14496     14494     14497     14498     14497     14499     14498     14497     14500
     14499     14497     14500     14501     14504     14505     14501     14504     14506
     14501     14504     14507     14502     14501     14503     14502     14501     14504
     14503     14501     14504     14504     14507     14508     14504     14507     14509
     14504     14507     14510     14505     14504     14506     14505     14504     14507
     14506     14504     14507     14507     14510     14511     14507     14510     14512
     14507     14510     14513     14508     14507     14509     14508     14507     14510
     14509     14507     14510     14510     14513     14514     14510     14513     14515
     14510     14513     14516     14511     14510     14512     14511     14510     14513
     14512     14510     14513     14513     14516     14517     14513     14516     14518
     14513     14516     14519     14514     14513     14515     14514     14513     14516
     14515     14513     14516     14516     14519     14520     14516     14519     14521
     14516     14519     14522     14517     14516     14518     14517     14516     14519
     14518     14516     14519     14519     14522     14523     14519     14522     14524
     14519     14522     14525     14520     14519     14521     14520     14519     14522
     14521     14519     14522     14522     14525     14526     14522     14525     14527
     14522     14525     14528     14523     14522     14524     14523     14522     14525
     14524     14522     14525     14525     14528     14529     14525     14528     14530
     14525     14528     14531     14526     14525     14527     14526     14525     14528
     14527     14525     14528     14528     14531     14532     14528     14531     14533
     14528     14531     14534     14529     14528     14530     14529     14528     14531
     14530     14528     14531     14531     14534     14535     14531     14534     14536
     14531     14534     14537     14532     14531     14533     14532     14531     14534
     14533     14531     14534     14534     14537     14538     14534     14537     14539
     14534     14537     14540     14535     14534     14536     14535     14534     14537
     14536     14534     14537     14537     14540     14541     14537     14540     14542
     14537     14540     14543     14538     14537     14539     14538     14537     14540
     14539     14537     14540     14540     14543     14544     14540     14543     14545
     14540     14543     14546     14541     14540     14542     14541     14540     14543
     14542     14540     14543     14543     14546     14547     14543     14546     14548
     14543     14546     14549     14544     14543     14545     14544     14543     14546
     14545     14543     14546     14547     14546     14548     14547     14546     14549
     14548     14546     14549     14550     14551     14552     14550     14551     14553
     14550     14551     14554     14550     14555     14556     14550     14555     14557
     14550     14555     14558     14550     14559     14560     14550     14559     14561
     14550     14559     14562     14550     14563     14564     14550     14563     14565
     14550     14563     14566     14551     14550     14555     14551     14550     14559
     14551     14550     14563     14552     14551     14553     14552     14551     14554
     14553     14551     14554     14555     14550     14559     14555     14550     14563
     14556     14555     14557     14556     14555     14558     14557     14555     14558
     14559     14550     14563     14560     14559     14561     14560     14559     14562
     14561     14559     14562     14563     14566     14567     14563     14566     14568
     14563     14566     14573     14564     14563     14565     14564     14563     14566
     14565     14563     14566     14566     14573     14569     14567     14566     14568
     14567     14566     14573     14568     14566     14573     14569     14572     14574
     14570     14569     14571     14570     14569     14572     14570     14569     14573
     14571     14569     14572     14571     14569     14573     14572     14569     14573
     14572     14574     14575     14572     14574     14576     14572     14574     14579
     14574     14579     14577     14574     14579     14580     14574     14579     14581
     14575     14574     14576     14575     14574     14579     14576     14574     14579
     14577     14579     14580     14577     14579     14581     14577     14629     14630
     14577     14629     14631     14578     14577     14579     14578     14577     14629
     14579     14577     14629     14579     14581     14582     14579     14581     14583
     14579     14581     14585     14580     14579     14581     14581     14583     14584
     14581     14585     14586     14581     14585     14587     14582     14581     14583
     14582     14581     14585     14583     14581     14585     14585     14587     14588
     14585     14587     14589     14586     14585     14587     14587     14589     14590
     14587     14589     14591     14587     14589     14592     14588     14587     14589
     14589     14592     14593     14589     14592     14594     14589     14592     14595
     14590     14589     14591     14590     14589     14592     14591     14589     14592
     14592     14595     14596     14592     14595     14597     14592     14595     14598
     14593     14592     14594     14593     14592     14595     14594     14592     14595
     14595     14598     14599     14595     14598     14600     14595     14598     14601
     14596     14595     14597     14596     14595     14598     14597     14595     14598
     14598     14601     14602     14598     14601     14603     14598     14601     14604
     14599     14598     14600     14599     14598     14601     14600     14598     14601
     14601     14604     14605     14601     14604     14606     14601     14604     14607
     14602     14601     14603     14602     14601     14604     14603     14601     14604
     14604     14607     14608     14604     14607     14609     14604     14607     14610
     14605     14604     14606     14605     14604     14607     14606     14604     14607
     14607     14610     14611     14607     14610     14612     14607     14610     14613
     14608     14607     14609     14608     14607     14610     14609     14607     14610
     14610     14613     14614     14610     14613     14615     14610     14613     14616
     14611     14610     14612     14611     14610     14613     14612     14610     14613
     14613     14616     14617     14613     14616     14618     14613     14616     14619
     14614     14613     14615     14614     14613     14616     14615     14613     14616
     14616     14619     14620     14616     14619     14621     14616     14619     14622
     14617     14616     14618     14617     14616     14619     14618     14616     14619
     14619     14622     14623     14619     14622     14624     14619     14622     14625
     14620     14619     14621     14620     14619     14622     14621     14619     14622
     14622     14625     14626     14622     14625     14627     14622     14625     14628
     14623     14622     14624     14623     14622     14625     14624     14622     14625
     14626     14625     14627     14626     14625     14628     14627     14625     14628
     14629     14631     14632     14629     14631     14633     14629     14631     14634
     14630     14629     14631     14631     14634     14635     14631     14634     14636
     14631     14634     14637     14632     14631     14633     14632     14631     14634
     14633     14631     14634     14634     14637     14638     14634     14637     14639
     14634     14637     14640     14635     14634     14636     14635     14634     14637
     14636     14634     14637     14637     14640     14641     14637     14640     14642
     14637     14640     14643     14638     14637     14639     14638     14637     14640
     14639     14637     14640     14640     14643     14644     14640     14643     14645
     14640     14643     14646     14641     14640     14642     14641     14640     14643
     14642     14640     14643     14643     14646     14647     14643     14646     14648
     14643     14646     14649     14644     14643     14645     14644     14643     14646
     14645     14643     14646     14646     14649     14650     14646     14649     14651
     14646     14649     14652     14647     14646     14648     14647     14646     14649
     14648     14646     14649     14649     14652     14653     14649     14652     14654
     14650     14649     14651     14650     14649     14652     14651     14649     14652
     14652     14654     14655     14652     14654     14656     14653     14652     14654
     14654     14656     14657     14654     14656     14658     14654     14656     14659
     14655     14654     14656     14656     14659     14660     14656     14659     14661
     14656     14659     14662     14657     14656     14658     14657     14656     14659
     14658     14656     14659     14659     14662     14663     14659     14662     14664
     14659     14662     14665     14660     14659     14661     14660     14659     14662
     14661     14659     14662     14662     14665     14666     14662     14665     14667
     14662     14665     14668     14663     14662     14664     14663     14662     14665
     14664     14662     14665     14665     14668     14669     14665     14668     14670
     14665     14668     14671     14666     14665     14667     14666     14665     14668
     14667     14665     14668     14668     14671     14672     14668     14671     14673
     14668     14671     14674     14669     14668     14670     14669     14668     14671
     14670     14668     14671     14671     14674     14675     14671     14674     14676
     14671     14674     14677     14672     14671     14673     14672     14671     14674
     14673     14671     14674     14674     14677     14678     14674     14677     14679
     14674     14677     14680     14675     14674     14676     14675     14674     14677
     14676     14674     14677     14678     14677     14679     14678     14677     14680
     14679     14677     14680     14681     14682     14683     14681     14682     14684
     14681     14682     14685     14681     14686     14687     14681     14686     14688
     14681     14686     14689     14681     14690     14691     14681     14690     14692
     14681     14690     14693     14681     14694     14695     14681     14694     14696
     14681     14694     14697     14682     14681     14686     14682     14681     14690
     14682     14681     14694     14683     14682     14684     14683     14682     14685
     14684     14682     14685     14686     14681     14690     14686     14681     14694
     14687     14686     14688     14687     14686     14689     14688     14686     14689
     14690     14681     14694     14691     14690     14692     14691     14690     14693
     14692     14690     14693     14694     14697     14698     14694     14697     14699
     14694     14697     14704     14695     14694     14696     14695     14694     14697
     14696     14694     14697     14697     14704     14700     14698     14697     14699
     14698     14697     14704     14699     14697     14704     14700     14703     14705
     14701     14700     14702     14701     14700     14703     14701     14700     14704
     14702     14700     14703     14702     14700     14704     14703     14700     14704
     14703     14705     14706     14703     14705     14707     14703     14705     14710
     14705     14710     14708     14705     14710     14711     14705     14710     14712
     14706     14705     14707     14706     14705     14710     14707     14705     14710
     14708     14710     14711     14708     14710     14712     14708     14760     14761
     14708     14760     14762     14709     14708     14710     14709     14708     14760
     14710     14708     14760     14710     14712     14713     14710     14712     14714
     14710     14712     14716     14711     14710     14712     14712     14714     14715
     14712     14716     14717     14712     14716     14718     14713     14712     14714
     14713     14712     14716     14714     14712     14716     14716     14718     14719
     14716     14718     14720     14717     14716     14718     14718     14720     14721
     14718     14720     14722     14718     14720     14723     14719     14718     14720
     14720     14723     14724     14720     14723     14725     14720     14723     14726
     14721     14720     14722     14721     14720     14723     14722     14720     14723
     14723     14726     14727     14723     14726     14728     14723     14726     14729
     14724     14723     14725     14724     14723     14726     14725     14723     14726
     14726     14729     14730     14726     14729     14731     14726     14729     14732
     14727     14726     14728     14727     14726     14729     14728     14726     14729
     14729     14732     14733     14729     14732     14734     14729     14732     14735
     14730     14729     14731     14730     14729     14732     14731     14729     14732
     14732     14735     14736     14732     14735     14737     14732     14735     14738
     14733     14732     14734     14733     14732     14735     14734     14732     14735
     14735     14738     14739     14735     14738     14740     14735     14738     14741
     14736     14735     14737     14736     14735     14738     14737     14735     14738
     14738     14741     14742     14738     14741     14743     14738     14741     14744
     14739     14738     14740     14739     14738     14741     14740     14738     14741
     14741     14744     14745     14741     14744     14746     14741     14744     14747
     14742     14741     14743     14742     14741     14744     14743     14741     14744
     14744     14747     14748     14744     14747     14749     14744     14747     14750
     14745     14744     14746     14745     14744     14747     14746     14744     14747
     14747     14750     14751     14747     14750     14752     14747     14750     14753
     14748     14747     14749     14748     14747     14750     14749     14747     14750
     14750     14753     14754     14750     14753     14755     14750     14753     14756
     14751     14750     14752     14751     14750     14753     14752     14750     14753
     14753     14756     14757     14753     14756     14758     14753     14756     14759
     14754     14753     14755     14754     14753     14756     14755     14753     14756
     14757     14756     14758     14757     14756     14759     14758     14756     14759
     14760     14762     14763     14760     14762     14764     14760     14762     14765
     14761     14760     14762     14762     14765     14766     14762     14765     14767
     14762     14765     14768     14763     14762     14764     14763     14762     14765
     14764     14762     14765     14765     14768     14769     14765     14768     14770
     14765     14768     14771     14766     14765     14767     14766     14765     14768
     14767     14765     14768     14768     14771     14772     14768     14771     14773
     14768     14771     14774     14769     14768     14770     14769     14768     14771
     14770     14768     14771     14771     14774     14775     14771     14774     14776
     14771     14774     14777     14772     14771     14773     14772     14771     14774
     14773     14771     14774     14774     14777     14778     14774     14777     14779
     14774     14777     14780     14775     14774     14776     14775     14774     14777
     14776     14774     14777     14777     14780     14781     14777     14780     14782
     14777     14780     14783     14778     14777     14779     14778     14777     14780
     14779     14777     14780     14780     14783     14784     14780     14783     14785
     14781     14780     14782     14781     14780     14783     14782     14780     14783
     14783     14785     14786     14783     14785     14787     14784     14783     14785
     14785     14787     14788     14785     14787     14789     14785     14787     14790
     14786     14785     14787     14787     14790     14791     14787     14790     14792
     14787     14790     14793     14788     14787     14789     14788     14787     14790
     14789     14787     14790     14790     14793     14794     14790     14793     14795
     14790     14793     14796     14791     14790     14792     14791     14790     14793
     14792     14790     14793     14793     14796     14797     14793     14796     14798
     14793     14796     14799     14794     14793     14795     14794     14793     14796
     14795     14793     14796     14796     14799     14800     14796     14799     14801
     14796     14799     14802     14797     14796     14798     14797     14796     14799
     14798     14796     14799     14799     14802     14803     14799     14802     14804
     14799     14802     14805     14800     14799     14801     14800     14799     14802
     14801     14799     14802     14802     14805     14806     14802     14805     14807
     14802     14805     14808     14803     14802     14804     14803     14802     14805
     14804     14802     14805     14805     14808     14809     14805     14808     14810
     14805     14808     14811     14806     14805     14807     14806     14805     14808
     14807     14805     14808     14809     14808     14810     14809     14808     14811
     14810     14808     14811     14812     14813     14814     14812     14813     14815
     14812     14813     14816     14812     14817     14818     14812     14817     14819
     14812     14817     14820     14812     14821     14822     14812     14821     14823
     14812     14821     14824     14812     14825     14826     14812     14825     14827
     14812     14825     14828     14813     14812     14817     14813     14812     14821
     14813     14812     14825     14814     14813     14815     14814     14813     14816
     14815     14813     14816     14817     14812     14821     14817     14812     14825
     14818     14817     14819     14818     14817     14820     14819     14817     14820
     14821     14812     14825     14822     14821     14823     14822     14821     14824
     14823     14821     14824     14825     14828     14829     14825     14828     14830
     14825     14828     14835     14826     14825     14827     14826     14825     14828
     14827     14825     14828     14828     14835     14831     14829     14828     14830
     14829     14828     14835     14830     14828     14835     14831     14834     14836
     14832     14831     14833     14832     14831     14834     14832     14831     14835
     14833     14831     14834     14833     14831     14835     14834     14831     14835
     14834     14836     14837     14834     14836     14838     14834     14836     14841
     14836     14841     14839     14836     14841     14842     14836     14841     14843
     14837     14836     14838     14837     14836     14841     14838     14836     14841
     14839     14841     14842     14839     14841     14843     14839     14891     14892
     14839     14891     14893     14840     14839     14841     14840     14839     14891
     14841     14839     14891     14841     14843     14844     14841     14843     14845
     14841     14843     14847     14842     14841     14843     14843     14845     14846
     14843     14847     14848     14843     14847     14849     14844     14843     14845
     14844     14843     14847     14845     14843     14847     14847     14849     14850
     14847     14849     14851     14848     14847     14849     14849     14851     14852
     14849     14851     14853     14849     14851     14854     14850     14849     14851
     14851     14854     14855     14851     14854     14856     14851     14854     14857
     14852     14851     14853     14852     14851     14854     14853     14851     14854
     14854     14857     14858     14854     14857     14859     14854     14857     14860
     14855     14854     14856     14855     14854     14857     14856     14854     14857
     14857     14860     14861     14857     14860     14862     14857     14860     14863
     14858     14857     14859     14858     14857     14860     14859     14857     14860
     14860     14863     14864     14860     14863     14865     14860     14863     14866
     14861     14860     14862     14861     14860     14863     14862     14860     14863
     14863     14866     14867     14863     14866     14868     14863     14866     14869
     14864     14863     14865     14864     14863     14866     14865     14863     14866
     14866     14869     14870     14866     14869     14871     14866     14869     14872
     14867     14866     14868     14867     14866     14869     14868     14866     14869
     14869     14872     14873     14869     14872     14874     14869     14872     14875
     14870     14869     14871     14870     14869     14872     14871     14869     14872
     14872     14875     14876     14872     14875     14877     14872     14875     14878
     14873     14872     14874     14873     14872     14875     14874     14872     14875
     14875     14878     14879     14875     14878     14880     14875     14878     14881
     14876     14875     14877     14876     14875     14878     14877     14875     14878
     14878     14881     14882     14878     14881     14883     14878     14881     14884
     14879     14878     14880     14879     14878     14881     14880     14878     14881
     14881     14884     14885     14881     14884     14886     14881     14884     14887
     14882     14881     14883     14882     14881     14884     14883     14881     14884
     14884     14887     14888     14884     14887     14889     14884     14887     14890
     14885     14884     14886     14885     14884     14887     14886     14884     14887
     14888     14887     14889     14888     14887     14890     14889     14887     14890
     14891     14893     14894     14891     14893     14895     14891     14893     14896
     14892     14891     14893     14893     14896     14897     14893     14896     14898
     14893     14896     14899     14894     14893     14895     14894     14893     14896
     14895     14893     14896     14896     14899     14900     14896     14899     14901
     14896     14899     14902     14897     14896     14898     14897     14896     14899
     14898     14896     14899     14899     14902     14903     14899     14902     14904
     14899     14902     14905     14900     14899     14901     14900     14899     14902
     14901     14899     14902     14902     14905     14906     14902     14905     14907
     14902     14905     14908     14903     14902     14904     14903     14902     14905
     14904     14902     14905     14905     14908     14909     14905     14908     14910
     14905     14908     14911     14906     14905     14907     14906     14905     14908
     14907     14905     14908     14908     14911     14912     14908     14911     14913
     14908     14911     14914     14909     14908     14910     14909     14908     14911
     14910     14908     14911     14911     14914     14915     14911     14914     14916
     14912     14911     14913     14912     14911     14914     14913     14911     14914
     14914     14916     14917     14914     14916     14918     14915     14914     14916
     14916     14918     14919     14916     14918     14920     14916     14918     14921
     14917     14916     14918     14918     14921     14922     14918     14921     14923
     14918     14921     14924     14919     14918     14920     14919     14918     14921
     14920     14918     14921     14921     14924     14925     14921     14924     14926
     14921     14924     14927     14922     14921     14923     14922     14921     14924
     14923     14921     14924     14924     14927     14928     14924     14927     14929
     14924     14927     14930     14925     14924     14926     14925     14924     14927
     14926     14924     14927     14927     14930     14931     14927     14930     14932
     14927     14930     14933     14928     14927     14929     14928     14927     14930
     14929     14927     14930     14930     14933     14934     14930     14933     14935
     14930     14933     14936     14931     14930     14932     14931     14930     14933
     14932     14930     14933     14933     14936     14937     14933     14936     14938
     14933     14936     14939     14934     14933     14935     14934     14933     14936
     14935     14933     14936     14936     14939     14940     14936     14939     14941
     14936     14939     14942     14937     14936     14938     14937     14936     14939
     14938     14936     14939     14940     14939     14941     14940     14939     14942
     14941     14939     14942     14943     14944     14945     14943     14944     14946
     14943     14944     14959     14943     14947     14948     14943     14947     14949
     14943     14947     14950     14943     14951     14952     14943     14951     14953
     14943     14951     14954     14943     14955     14956     14943     14955     14957
     14943     14955     14958     14944     14943     14947     14944     14943     14951
     14944     14943     14955     14944     14959     14960     14944     14959     14961
     14944     14959     14965     14945     14944     14946     14945     14944     14959
     14946     14944     14959     14947     14943     14951     14947     14943     14955
     14948     14947     14949     14948     14947     14950     14949     14947     14950
     14951     14943     14955     14952     14951     14953     14952     14951     14954
     14953     14951     14954     14956     14955     14957     14956     14955     14958
     14957     14955     14958     14959     14965     14962     14960     14959     14961
     14960     14959     14965     14961     14959     14965     14962     14966     14967
     14963     14962     14964     14963     14962     14965     14963     14962     14966
     14964     14962     14965     14964     14962     14966     14965     14962     14966
     14966     14967     14968     14966     14967     14969     14966     14967     14970
     14967     14970     14971     14967     14970     14972     14967     14970     14978
     14968     14967     14969     14968     14967     14970     14969     14967     14970
     14970     14972     14973     14970     14978     14979     14970     14978     14980
     14970     14978     14981     14971     14970     14972     14971     14970     14978
     14972     14970     14978     14972     14973     14974     14972     14973     14975
     14973     14975     14976     14973     14975     14977     14973     14975     14987
     14974     14973     14975     14975     14987     14988     14975     14987     14989
     14975     14987     14990     14976     14975     14977     14976     14975     14987
     14977     14975     14987     14978     14981     14982     14979     14978     14980
     14979     14978     14981     14980     14978     14981     14981     14982     14983
     14981     14982     14984     14982     14984     14985     14982     14984     14986
     14982     14984     15034     14983     14982     14984     14984     15034     15035
     14984     15034     15036     14984     15034     15037     14985     14984     14986
     14985     14984     15034     14986     14984     15034     14987     14990     14991
     14987     14990     14992     14987     14990     14993     14988     14987     14989
     14988     14987     14990     14989     14987     14990     14990     14993     14994
     14990     14993     14995     14990     14993     14996     14991     14990     14992
     14991     14990     14993     14992     14990     14993     14993     14996     14997
     14993     14996     14998     14993     14996     14999     14994     14993     14995
     14994     14993     14996     14995     14993     14996     14996     14999     15000
     14996     14999     15001     14996     14999     15002     14997     14996     14998
     14997     14996     14999     14998     14996     14999     14999     15002     15003
     14999     15002     15004     14999     15002     15005     15000     14999     15001
     15000     14999     15002     15001     14999     15002     15002     15005     15006
     15002     15005     15007     15003     15002     15004     15003     15002     15005
     15004     15002     15005     15005     15007     15008     15005     15007     15009
     15006     15005     15007     15007     15009     15010     15007     15009     15011
     15007     15009     15012     15008     15007     15009     15009     15012     15013
     15009     15012     15014     15009     15012     15015     15010     15009     15011
     15010     15009     15012     15011     15009     15012     15012     15015     15016
     15012     15015     15017     15012     15015     15018     15013     15012     15014
     15013     15012     15015     15014     15012     15015     15015     15018     15019
     15015     15018     15020     15015     15018     15021     15016     15015     15017
     15016     15015     15018     15017     15015     15018     15018     15021     15022
     15018     15021     15023     15018     15021     15024     15019     15018     15020
     15019     15018     15021     15020     15018     15021     15021     15024     15025
     15021     15024     15026     15021     15024     15027     15022     15021     15023
     15022     15021     15024     15023     15021     15024     15024     15027     15028
     15024     15027     15029     15024     15027     15030     15025     15024     15026
     15025     15024     15027     15026     15024     15027     15027     15030     15031
     15027     15030     15032     15027     15030     15033     15028     15027     15029
     15028     15027     15030     15029     15027     15030     15031     15030     15032
     15031     15030     15033     15032     15030     15033     15034     15037     15038
     15034     15037     15039     15034     15037     15040     15035     15034     15036
     15035     15034     15037     15036     15034     15037     15037     15040     15041
     15037     15040     15042     15037     15040     15043     15038     15037     15039
     15038     15037     15040     15039     15037     15040     15040     15043     15044
     15040     15043     15045     15040     15043     15046     15041     15040     15042
     15041     15040     15043     15042     15040     15043     15043     15046     15047
     15043     15046     15048     15043     15046     15049     15044     15043     15045
     15044     15043     15046     15045     15043     15046     15046     15049     15050
     15046     15049     15051     15046     15049     15052     15047     15046     15048
     15047     15046     15049     15048     15046     15049     15049     15052     15053
     15049     15052     15054     15049     15052     15055     15050     15049     15051
     15050     15049     15052     15051     15049     15052     15052     15055     15056
     15052     15055     15057     15052     15055     15058     15053     15052     15054
     15053     15052     15055     15054     15052     15055     15055     15058     15059
     15055     15058     15060     15055     15058     15061     15056     15055     15057
     15056     15055     15058     15057     15055     15058     15058     15061     15062
     15058     15061     15063     15058     15061     15064     15059     15058     15060
     15059     15058     15061     15060     15058     15061     15061     15064     15065
     15061     15064     15066     15061     15064     15067     15062     15061     15063
     15062     15061     15064     15063     15061     15064     15064     15067     15068
     15064     15067     15069     15064     15067     15070     15065     15064     15066
     15065     15064     15067     15066     15064     15067     15067     15070     15071
     15067     15070     15072     15067     15070     15073     15068     15067     15069
     15068     15067     15070     15069     15067     15070     15070     15073     15074
     15070     15073     15075     15070     15073     15076     15071     15070     15072
     15071     15070     15073     15072     15070     15073     15074     15073     15075
     15074     15073     15076     15075     15073     15076     15077     15081     15082
     15077     15081     15083     15077     15081     15086     15078     15077     15079
     15078     15077     15080     15078     15077     15081     15079     15077     15080
     15079     15077     15081     15080     15077     15081     15081     15083     15084
     15081     15083     15085     15081     15086     15087     15081     15086     15088
     15081     15086     15092     15082     15081     15083     15082     15081     15086
     15083     15081     15086     15084     15083     15085     15086     15092     15089
     15087     15086     15088     15087     15086     15092     15088     15086     15092
     15089     15093     15094     15090     15089     15091     15090     15089     15092
     15090     15089     15093     15091     15089     15092     15091     15089     15093
     15092     15089     15093     15093     15094     15095     15093     15094     15096
     15093     15094     15097     15094     15097     15098     15094     15097     15099
     15094     15097     15105     15095     15094     15096     15095     15094     15097
     15096     15094     15097     15097     15099     15100     15097     15105     15106
     15097     15105     15107     15097     15105     15108     15098     15097     15099
     15098     15097     15105     15099     15097     15105     15099     15100     15101
     15099     15100     15102     15100     15102     15103     15100     15102     15104
     15100     15102     15114     15101     15100     15102     15102     15114     15115
     15102     15114     15116     15102     15114     15117     15103     15102     15104
     15103     15102     15114     15104     15102     15114     15105     15108     15109
     15106     15105     15107     15106     15105     15108     15107     15105     15108
     15108     15109     15110     15108     15109     15111     15109     15111     15112
     15109     15111     15113     15109     15111     15161     15110     15109     15111
     15111     15161     15162     15111     15161     15163     15111     15161     15164
     15112     15111     15113     15112     15111     15161     15113     15111     15161
     15114     15117     15118     15114     15117     15119     15114     15117     15120
     15115     15114     15116     15115     15114     15117     15116     15114     15117
     15117     15120     15121     15117     15120     15122     15118     15117     15119
     15118     15117     15120     15119     15117     15120     15120     15122     15123
     15120     15122     15124     15121     15120     15122     15122     15124     15125
     15122     15124     15126     15122     15124     15127     15123     15122     15124
     15124     15127     15128     15124     15127     15129     15125     15124     15126
     15125     15124     15127     15126     15124     15127     15127     15129     15130
     15127     15129     15131     15128     15127     15129     15129     15131     15132
     15129     15131     15133     15129     15131     15134     15130     15129     15131
     15131     15134     15135     15131     15134     15136     15132     15131     15133
     15132     15131     15134     15133     15131     15134     15134     15136     15137
     15134     15136     15138     15135     15134     15136     15136     15138     15139
     15136     15138     15140     15136     15138     15141     15137     15136     15138
     15138     15141     15142     15138     15141     15143     15139     15138     15140
     15139     15138     15141     15140     15138     15141     15141     15143     15144
     15141     15143     15145     15142     15141     15143     15143     15145     15146
     15143     15145     15147     15143     15145     15148     15144     15143     15145
     15145     15148     15149     15145     15148     15150     15145     15148     15151
     15146     15145     15147     15146     15145     15148     15147     15145     15148
     15148     15151     15152     15148     15151     15153     15148     15151     15154
     15149     15148     15150     15149     15148     15151     15150     15148     15151
     15151     15154     15155     15151     15154     15156     15151     15154     15157
     15152     15151     15153     15152     15151     15154     15153     15151     15154
     15154     15157     15158     15154     15157     15159     15154     15157     15160
     15155     15154     15156     15155     15154     15157     15156     15154     15157
     15158     15157     15159     15158     15157     15160     15159     15157     15160
     15161     15164     15165     15161     15164     15166     15161     15164     15167
     15162     15161     15163     15162     15161     15164     15163     15161     15164
     15164     15167     15168     15164     15167     15169     15164     15167     15170
     15165     15164     15166     15165     15164     15167     15166     15164     15167
     15167     15170     15171     15167     15170     15172     15167     15170     15173
     15168     15167     15169     15168     15167     15170     15169     15167     15170
     15170     15173     15174     15170     15173     15175     15170     15173     15176
     15171     15170     15172     15171     15170     15173     15172     15170     15173
     15173     15176     15177     15173     15176     15178     15173     15176     15179
     15174     15173     15175     15174     15173     15176     15175     15173     15176
     15176     15179     15180     15176     15179     15181     15176     15179     15182
     15177     15176     15178     15177     15176     15179     15178     15176     15179
     15179     15182     15183     15179     15182     15184     15179     15182     15185
     15180     15179     15181     15180     15179     15182     15181     15179     15182
     15182     15185     15186     15182     15185     15187     15182     15185     15188
     15183     15182     15184     15183     15182     15185     15184     15182     15185
     15185     15188     15189     15185     15188     15190     15185     15188     15191
     15186     15185     15187     15186     15185     15188     15187     15185     15188
     15188     15191     15192     15188     15191     15193     15188     15191     15194
     15189     15188     15190     15189     15188     15191     15190     15188     15191
     15191     15194     15195     15191     15194     15196     15191     15194     15197
     15192     15191     15193     15192     15191     15194     15193     15191     15194
     15194     15197     15198     15194     15197     15199     15194     15197     15200
     15195     15194     15196     15195     15194     15197     15196     15194     15197
     15197     15200     15201     15197     15200     15202     15197     15200     15203
     15198     15197     15199     15198     15197     15200     15199     15197     15200
     15200     15203     15204     15200     15203     15205     15200     15203     15206
     15201     15200     15202     15201     15200     15203     15202     15200     15203
     15203     15206     15207     15203     15206     15208     15203     15206     15209
     15204     15203     15205     15204     15203     15206     15205     15203     15206
     15207     15206     15208     15207     15206     15209     15208     15206     15209
     15210     15212     15213     15210     15214     15215     15210     15214     15216
     15210     15214     15217     15210     15256     15253     15210     15256     15257
     15210     15256     15258     15211     15210     15212     15211     15210     15214
     15211     15210     15256     15212     15210     15214     15212     15210     15256
     15214     15210     15256     15214     15217     15218     15214     15217     15248
     15215     15214     15216     15215     15214     15217     15216     15214     15217
     15217     15218     15219     15217     15218     15220     15217     15248     15246
     15217     15248     15249     15217     15248     15253     15218     15217     15248
     15218     15220     15221     15218     15220     15222     15218     15220     15223
     15219     15218     15220     15220     15223     15224     15220     15223     15225
     15220     15223     15246     15221     15220     15222     15221     15220     15223
     15222     15220     15223     15223     15225     15226     15223     15225     15227
     15223     15225     15235     15223     15246     15243     15223     15246     15247
     15223     15246     15248     15224     15223     15225     15224     15223     15246
     15225     15223     15246     15225     15227     15228     15225     15227     15229
     15225     15227     15230     15225     15235     15233     15225     15235     15236
     15225     15235     15240     15226     15225     15227     15226     15225     15235
     15227     15225     15235     15227     15230     15231     15227     15230     15232
     15227     15230     15233     15228     15227     15229     15228     15227     15230
     15229     15227     15230     15230     15233     15234     15230     15233     15235
     15230     15233     15259     15231     15230     15232     15231     15230     15233
     15232     15230     15233     15233     15235     15236     15233     15235     15240
     15233     15259     15260     15233     15259     15261     15233     15259     15265
     15234     15233     15235     15234     15233     15259     15235     15233     15259
     15235     15236     15237     15235     15236     15238     15235     15236     15239
     15235     15240     15241     15235     15240     15242     15235     15240     15243
     15236     15235     15240     15237     15236     15238     15237     15236     15239
     15238     15236     15239     15240     15243     15244     15240     15243     15245
     15240     15243     15246     15241     15240     15242     15241     15240     15243
     15242     15240     15243     15243     15246     15247     15243     15246     15248
     15244     15243     15245     15244     15243     15246     15245     15243     15246
     15246     15248     15249     15246     15248     15253     15247     15246     15248
     15248     15249     15250     15248     15249     15251     15248     15249     15252
     15248     15253     15254     15248     15253     15255     15248     15253     15256
     15249     15248     15253     15250     15249     15251     15250     15249     15252
     15251     15249     15252     15253     15256     15257     15253     15256     15258
     15254     15253     15255     15254     15253     15256     15255     15253     15256
     15257     15256     15258     15259     15261     15262     15259     15261     15263
     15259     15261     15264     15259     15265     15266     15259     15265     15267
     15259     15265     15268     15260     15259     15261     15260     15259     15265
     15261     15259     15265     15262     15261     15263     15262     15261     15264
     15263     15261     15264     15265     15268     15269     15265     15268     15270
     15265     15268     15271     15266     15265     15267     15266     15265     15268
     15267     15265     15268     15268     15271     15272     15268     15271     15273
     15268     15271     15274     15269     15268     15270     15269     15268     15271
     15270     15268     15271     15271     15274     15275     15271     15274     15276
     15271     15274     15280     15272     15271     15273     15272     15271     15274
     15273     15271     15274     15274     15276     15277     15274     15276     15278
     15274     15276     15279     15274     15280     15281     15274     15280     15282
     15274     15280     15283     15275     15274     15276     15275     15274     15280
     15276     15274     15280     15277     15276     15278     15277     15276     15279
     15278     15276     15279     15281     15280     15282     15281     15280     15283
     15282     15280     15283     15284     15288     15289     15284     15288     15290
     15284     15288     15291     15285     15284     15286     15285     15284     15287
     15285     15284     15288     15286     15284     15287     15286     15284     15288
     15287     15284     15288     15288     15291     15292     15288     15291     15293
     15288     15291     15297     15289     15288     15290     15289     15288     15291
     15290     15288     15291     15291     15297     15294     15292     15291     15293
     15292     15291     15297     15293     15291     15297     15294     15298     15299
     15295     15294     15296     15295     15294     15297     15295     15294     15298
     15296     15294     15297     15296     15294     15298     15297     15294     15298
     15298     15299     15300     15298     15299     15301     15298     15299     15302
     15299     15302     15303     15299     15302     15304     15299     15302     15310
     15300     15299     15301     15300     15299     15302     15301     15299     15302
     15302     15304     15305     15302     15310     15311     15302     15310     15312
     15302     15310     15313     15303     15302     15304     15303     15302     15310
     15304     15302     15310     15304     15305     15306     15304     15305     15307
     15305     15307     15308     15305     15307     15309     15305     15307     15319
     15306     15305     15307     15307     15319     15320     15307     15319     15321
     15307     15319     15322     15308     15307     15309     15308     15307     15319
     15309     15307     15319     15310     15313     15314     15311     15310     15312
     15311     15310     15313     15312     15310     15313     15313     15314     15315
     15313     15314     15316     15314     15316     15317     15314     15316     15318
     15314     15316     15366     15315     15314     15316     15316     15366     15367
     15316     15366     15368     15316     15366     15369     15317     15316     15318
     15317     15316     15366     15318     15316     15366     15319     15322     15323
     15319     15322     15324     15319     15322     15325     15320     15319     15321
     15320     15319     15322     15321     15319     15322     15322     15325     15326
     15322     15325     15327     15323     15322     15324     15323     15322     15325
     15324     15322     15325     15325     15327     15328     15325     15327     15329
     15326     15325     15327     15327     15329     15330     15327     15329     15331
     15327     15329     15332     15328     15327     15329     15329     15332     15333
     15329     15332     15334     15330     15329     15331     15330     15329     15332
     15331     15329     15332     15332     15334     15335     15332     15334     15336
     15333     15332     15334     15334     15336     15337     15334     15336     15338
     15334     15336     15339     15335     15334     15336     15336     15339     15340
     15336     15339     15341     15337     15336     15338     15337     15336     15339
     15338     15336     15339     15339     15341     15342     15339     15341     15343
     15340     15339     15341     15341     15343     15344     15341     15343     15345
     15341     15343     15346     15342     15341     15343     15343     15346     15347
     15343     15346     15348     15344     15343     15345     15344     15343     15346
     15345     15343     15346     15346     15348     15349     15346     15348     15350
     15347     15346     15348     15348     15350     15351     15348     15350     15352
     15348     15350     15353     15349     15348     15350     15350     15353     15354
     15350     15353     15355     15350     15353     15356     15351     15350     15352
     15351     15350     15353     15352     15350     15353     15353     15356     15357
     15353     15356     15358     15353     15356     15359     15354     15353     15355
     15354     15353     15356     15355     15353     15356     15356     15359     15360
     15356     15359     15361     15356     15359     15362     15357     15356     15358
     15357     15356     15359     15358     15356     15359     15359     15362     15363
     15359     15362     15364     15359     15362     15365     15360     15359     15361
     15360     15359     15362     15361     15359     15362     15363     15362     15364
     15363     15362     15365     15364     15362     15365     15366     15369     15370
     15366     15369     15371     15366     15369     15372     15367     15366     15368
     15367     15366     15369     15368     15366     15369     15369     15372     15373
     15369     15372     15374     15369     15372     15375     15370     15369     15371
     15370     15369     15372     15371     15369     15372     15372     15375     15376
     15372     15375     15377     15372     15375     15378     15373     15372     15374
     15373     15372     15375     15374     15372     15375     15375     15378     15379
     15375     15378     15380     15375     15378     15381     15376     15375     15377
     15376     15375     15378     15377     15375     15378     15378     15381     15382
     15378     15381     15383     15378     15381     15384     15379     15378     15380
     15379     15378     15381     15380     15378     15381     15381     15384     15385
     15381     15384     15386     15381     15384     15387     15382     15381     15383
     15382     15381     15384     15383     15381     15384     15384     15387     15388
     15384     15387     15389     15384     15387     15390     15385     15384     15386
     15385     15384     15387     15386     15384     15387     15387     15390     15391
     15387     15390     15392     15387     15390     15393     15388     15387     15389
     15388     15387     15390     15389     15387     15390     15390     15393     15394
     15390     15393     15395     15390     15393     15396     15391     15390     15392
     15391     15390     15393     15392     15390     15393     15393     15396     15397
     15393     15396     15398     15393     15396     15399     15394     15393     15395
     15394     15393     15396     15395     15393     15396     15396     15399     15400
     15396     15399     15401     15396     15399     15402     15397     15396     15398
     15397     15396     15399     15398     15396     15399     15399     15402     15403
     15399     15402     15404     15399     15402     15405     15400     15399     15401
     15400     15399     15402     15401     15399     15402     15402     15405     15406
     15402     15405     15407     15402     15405     15408     15403     15402     15404
     15403     15402     15405     15404     15402     15405     15405     15408     15409
     15405     15408     15410     15405     15408     15411     15406     15405     15407
     15406     15405     15408     15407     15405     15408     15408     15411     15412
     15408     15411     15413     15408     15411     15414     15409     15408     15410
     15409     15408     15411     15410     15408     15411     15412     15411     15413
     15412     15411     15414     15413     15411     15414     15415     15416     15417
     15415     15416     15418     15415     15416     15431     15415     15419     15420
     15415     15419     15421     15415     15419     15422     15415     15423     15424
     15415     15423     15425     15415     15423     15426     15415     15427     15428
     15415     15427     15429     15415     15427     15430     15416     15415     15419
     15416     15415     15423     15416     15415     15427     15416     15431     15432
     15416     15431     15433     15416     15431     15437     15417     15416     15418
     15417     15416     15431     15418     15416     15431     15419     15415     15423
     15419     15415     15427     15420     15419     15421     15420     15419     15422
     15421     15419     15422     15423     15415     15427     15424     15423     15425
     15424     15423     15426     15425     15423     15426     15428     15427     15429
     15428     15427     15430     15429     15427     15430     15431     15437     15434
     15432     15431     15433     15432     15431     15437     15433     15431     15437
     15434     15438     15439     15435     15434     15436     15435     15434     15437
     15435     15434     15438     15436     15434     15437     15436     15434     15438
     15437     15434     15438     15438     15439     15440     15438     15439     15441
     15438     15439     15442     15439     15442     15443     15439     15442     15444
     15439     15442     15450     15440     15439     15441     15440     15439     15442
     15441     15439     15442     15442     15444     15445     15442     15450     15451
     15442     15450     15452     15442     15450     15453     15443     15442     15444
     15443     15442     15450     15444     15442     15450     15444     15445     15446
     15444     15445     15447     15445     15447     15448     15445     15447     15449
     15445     15447     15459     15446     15445     15447     15447     15459     15460
     15447     15459     15461     15447     15459     15462     15448     15447     15449
     15448     15447     15459     15449     15447     15459     15450     15453     15454
     15451     15450     15452     15451     15450     15453     15452     15450     15453
     15453     15454     15455     15453     15454     15456     15454     15456     15457
     15454     15456     15458     15454     15456     15506     15455     15454     15456
     15456     15506     15507     15456     15506     15508     15456     15506     15509
     15457     15456     15458     15457     15456     15506     15458     15456     15506
     15459     15462     15463     15459     15462     15464     15459     15462     15465
     15460     15459     15461     15460     15459     15462     15461     15459     15462
     15462     15465     15466     15462     15465     15467     15462     15465     15468
     15463     15462     15464     15463     15462     15465     15464     15462     15465
     15465     15468     15469     15465     15468     15470     15465     15468     15471
     15466     15465     15467     15466     15465     15468     15467     15465     15468
     15468     15471     15472     15468     15471     15473     15468     15471     15474
     15469     15468     15470     15469     15468     15471     15470     15468     15471
     15471     15474     15475     15471     15474     15476     15471     15474     15477
     15472     15471     15473     15472     15471     15474     15473     15471     15474
     15474     15477     15478     15474     15477     15479     15475     15474     15476
     15475     15474     15477     15476     15474     15477     15477     15479     15480
     15477     15479     15481     15478     15477     15479     15479     15481     15482
     15479     15481     15483     15479     15481     15484     15480     15479     15481
     15481     15484     15485     15481     15484     15486     15481     15484     15487
     15482     15481     15483     15482     15481     15484     15483     15481     15484
     15484     15487     15488     15484     15487     15489     15484     15487     15490
     15485     15484     15486     15485     15484     15487     15486     15484     15487
     15487     15490     15491     15487     15490     15492     15487     15490     15493
     15488     15487     15489     15488     15487     15490     15489     15487     15490
     15490     15493     15494     15490     15493     15495     15490     15493     15496
     15491     15490     15492     15491     15490     15493     15492     15490     15493
     15493     15496     15497     15493     15496     15498     15493     15496     15499
     15494     15493     15495     15494     15493     15496     15495     15493     15496
     15496     15499     15500     15496     15499     15501     15496     15499     15502
     15497     15496     15498     15497     15496     15499     15498     15496     15499
     15499     15502     15503     15499     15502     15504     15499     15502     15505
     15500     15499     15501     15500     15499     15502     15501     15499     15502
     15503     15502     15504     15503     15502     15505     15504     15502     15505
     15506     15509     15510     15506     15509     15511     15506     15509     15512
     15507     15506     15508     15507     15506     15509     15508     15506     15509
     15509     15512     15513     15509     15512     15514     15509     15512     15515
     15510     15509     15511     15510     15509     15512     15511     15509     15512
     15512     15515     15516     15512     15515     15517     15512     15515     15518
     15513     15512     15514     15513     15512     15515     15514     15512     15515
     15515     15518     15519     15515     15518     15520     15515     15518     15521
     15516     15515     15517     15516     15515     15518     15517     15515     15518
     15518     15521     15522     15518     15521     15523     15518     15521     15524
     15519     15518     15520     15519     15518     15521     15520     15518     15521
     15521     15524     15525     15521     15524     15526     15521     15524     15527
     15522     15521     15523     15522     15521     15524     15523     15521     15524
     15524     15527     15528     15524     15527     15529     15524     15527     15530
     15525     15524     15526     15525     15524     15527     15526     15524     15527
     15527     15530     15531     15527     15530     15532     15527     15530     15533
     15528     15527     15529     15528     15527     15530     15529     15527     15530
     15530     15533     15534     15530     15533     15535     15530     15533     15536
     15531     15530     15532     15531     15530     15533     15532     15530     15533
     15533     15536     15537     15533     15536     15538     15533     15536     15539
     15534     15533     15535     15534     15533     15536     15535     15533     15536
     15536     15539     15540     15536     15539     15541     15536     15539     15542
     15537     15536     15538     15537     15536     15539     15538     15536     15539
     15539     15542     15543     15539     15542     15544     15539     15542     15545
     15540     15539     15541     15540     15539     15542     15541     15539     15542
     15542     15545     15546     15542     15545     15547     15542     15545     15548
     15543     15542     15544     15543     15542     15545     15544     15542     15545
     15546     15545     15547     15546     15545     15548     15547     15545     15548
     15549     15551     15552     15549     15553     15554     15549     15553     15555
     15549     15553     15556     15549     15595     15592     15549     15595     15596
     15549     15595     15597     15550     15549     15551     15550     15549     15553
     15550     15549     15595     15551     15549     15553     15551     15549     15595
     15553     15549     15595     15553     15556     15557     15553     15556     15587
     15554     15553     15555     15554     15553     15556     15555     15553     15556
     15556     15557     15558     15556     15557     15559     15556     15587     15585
     15556     15587     15588     15556     15587     15592     15557     15556     15587
     15557     15559     15560     15557     15559     15561     15557     15559     15562
     15558     15557     15559     15559     15562     15563     15559     15562     15564
     15559     15562     15585     15560     15559     15561     15560     15559     15562
     15561     15559     15562     15562     15564     15565     15562     15564     15566
     15562     15564     15574     15562     15585     15582     15562     15585     15586
     15562     15585     15587     15563     15562     15564     15563     15562     15585
     15564     15562     15585     15564     15566     15567     15564     15566     15568
     15564     15566     15569     15564     15574     15572     15564     15574     15575
     15564     15574     15579     15565     15564     15566     15565     15564     15574
     15566     15564     15574     15566     15569     15570     15566     15569     15571
     15566     15569     15572     15567     15566     15568     15567     15566     15569
     15568     15566     15569     15569     15572     15573     15569     15572     15574
     15569     15572     15598     15570     15569     15571     15570     15569     15572
     15571     15569     15572     15572     15574     15575     15572     15574     15579
     15572     15598     15599     15572     15598     15600     15572     15598     15604
     15573     15572     15574     15573     15572     15598     15574     15572     15598
     15574     15575     15576     15574     15575     15577     15574     15575     15578
     15574     15579     15580     15574     15579     15581     15574     15579     15582
     15575     15574     15579     15576     15575     15577     15576     15575     15578
     15577     15575     15578     15579     15582     15583     15579     15582     15584
     15579     15582     15585     15580     15579     15581     15580     15579     15582
     15581     15579     15582     15582     15585     15586     15582     15585     15587
     15583     15582     15584     15583     15582     15585     15584     15582     15585
     15585     15587     15588     15585     15587     15592     15586     15585     15587
     15587     15588     15589     15587     15588     15590     15587     15588     15591
     15587     15592     15593     15587     15592     15594     15587     15592     15595
     15588     15587     15592     15589     15588     15590     15589     15588     15591
     15590     15588     15591     15592     15595     15596     15592     15595     15597
     15593     15592     15594     15593     15592     15595     15594     15592     15595
     15596     15595     15597     15598     15600     15601     15598     15600     15602
     15598     15600     15603     15598     15604     15605     15598     15604     15606
     15598     15604     15607     15599     15598     15600     15599     15598     15604
     15600     15598     15604     15601     15600     15602     15601     15600     15603
     15602     15600     15603     15604     15607     15608     15604     15607     15609
     15604     15607     15610     15605     15604     15606     15605     15604     15607
     15606     15604     15607     15607     15610     15611     15607     15610     15612
     15607     15610     15613     15608     15607     15609     15608     15607     15610
     15609     15607     15610     15610     15613     15614     15610     15613     15615
     15610     15613     15619     15611     15610     15612     15611     15610     15613
     15612     15610     15613     15613     15615     15616     15613     15615     15617
     15613     15615     15618     15613     15619     15620     15613     15619     15621
     15613     15619     15622     15614     15613     15615     15614     15613     15619
     15615     15613     15619     15616     15615     15617     15616     15615     15618
     15617     15615     15618     15620     15619     15621     15620     15619     15622
     15621     15619     15622     15623     15625     15626     15623     15627     15628
     15623     15627     15629     15623     15627     15630     15623     15669     15666
     15623     15669     15670     15623     15669     15671     15624     15623     15625
     15624     15623     15627     15624     15623     15669     15625     15623     15627
     15625     15623     15669     15627     15623     15669     15627     15630     15631
     15627     15630     15661     15628     15627     15629     15628     15627     15630
     15629     15627     15630     15630     15631     15632     15630     15631     15633
     15630     15661     15659     15630     15661     15662     15630     15661     15666
     15631     15630     15661     15631     15633     15634     15631     15633     15635
     15631     15633     15636     15632     15631     15633     15633     15636     15637
     15633     15636     15638     15633     15636     15659     15634     15633     15635
     15634     15633     15636     15635     15633     15636     15636     15638     15639
     15636     15638     15640     15636     15638     15648     15636     15659     15656
     15636     15659     15660     15636     15659     15661     15637     15636     15638
     15637     15636     15659     15638     15636     15659     15638     15640     15641
     15638     15640     15642     15638     15640     15643     15638     15648     15646
     15638     15648     15649     15638     15648     15653     15639     15638     15640
     15639     15638     15648     15640     15638     15648     15640     15643     15644
     15640     15643     15645     15640     15643     15646     15641     15640     15642
     15641     15640     15643     15642     15640     15643     15643     15646     15647
     15643     15646     15648     15643     15646     15672     15644     15643     15645
     15644     15643     15646     15645     15643     15646     15646     15648     15649
     15646     15648     15653     15646     15672     15673     15646     15672     15674
     15646     15672     15678     15647     15646     15648     15647     15646     15672
     15648     15646     15672     15648     15649     15650     15648     15649     15651
     15648     15649     15652     15648     15653     15654     15648     15653     15655
     15648     15653     15656     15649     15648     15653     15650     15649     15651
     15650     15649     15652     15651     15649     15652     15653     15656     15657
     15653     15656     15658     15653     15656     15659     15654     15653     15655
     15654     15653     15656     15655     15653     15656     15656     15659     15660
     15656     15659     15661     15657     15656     15658     15657     15656     15659
     15658     15656     15659     15659     15661     15662     15659     15661     15666
     15660     15659     15661     15661     15662     15663     15661     15662     15664
     15661     15662     15665     15661     15666     15667     15661     15666     15668
     15661     15666     15669     15662     15661     15666     15663     15662     15664
     15663     15662     15665     15664     15662     15665     15666     15669     15670
     15666     15669     15671     15667     15666     15668     15667     15666     15669
     15668     15666     15669     15670     15669     15671     15672     15674     15675
     15672     15674     15676     15672     15674     15677     15672     15678     15679
     15672     15678     15680     15672     15678     15681     15673     15672     15674
     15673     15672     15678     15674     15672     15678     15675     15674     15676
     15675     15674     15677     15676     15674     15677     15678     15681     15682
     15678     15681     15683     15678     15681     15684     15679     15678     15680
     15679     15678     15681     15680     15678     15681     15681     15684     15685
     15681     15684     15686     15681     15684     15687     15682     15681     15683
     15682     15681     15684     15683     15681     15684     15684     15687     15688
     15684     15687     15689     15684     15687     15693     15685     15684     15686
     15685     15684     15687     15686     15684     15687     15687     15689     15690
     15687     15689     15691     15687     15689     15692     15687     15693     15694
     15687     15693     15695     15687     15693     15696     15688     15687     15689
     15688     15687     15693     15689     15687     15693     15690     15689     15691
     15690     15689     15692     15691     15689     15692     15694     15693     15695
     15694     15693     15696     15695     15693     15696     15697     15699     15700
     15697     15701     15702     15697     15701     15703     15697     15701     15704
     15697     15743     15740     15697     15743     15744     15697     15743     15745
     15698     15697     15699     15698     15697     15701     15698     15697     15743
     15699     15697     15701     15699     15697     15743     15701     15697     15743
     15701     15704     15705     15701     15704     15735     15702     15701     15703
     15702     15701     15704     15703     15701     15704     15704     15705     15706
     15704     15705     15707     15704     15735     15733     15704     15735     15736
     15704     15735     15740     15705     15704     15735     15705     15707     15708
     15705     15707     15709     15705     15707     15710     15706     15705     15707
     15707     15710     15711     15707     15710     15712     15707     15710     15733
     15708     15707     15709     15708     15707     15710     15709     15707     15710
     15710     15712     15713     15710     15712     15714     15710     15712     15722
     15710     15733     15730     15710     15733     15734     15710     15733     15735
     15711     15710     15712     15711     15710     15733     15712     15710     15733
     15712     15714     15715     15712     15714     15716     15712     15714     15717
     15712     15722     15720     15712     15722     15723     15712     15722     15727
     15713     15712     15714     15713     15712     15722     15714     15712     15722
     15714     15717     15718     15714     15717     15719     15714     15717     15720
     15715     15714     15716     15715     15714     15717     15716     15714     15717
     15717     15720     15721     15717     15720     15722     15717     15720     15746
     15718     15717     15719     15718     15717     15720     15719     15717     15720
     15720     15722     15723     15720     15722     15727     15720     15746     15747
     15720     15746     15748     15720     15746     15752     15721     15720     15722
     15721     15720     15746     15722     15720     15746     15722     15723     15724
     15722     15723     15725     15722     15723     15726     15722     15727     15728
     15722     15727     15729     15722     15727     15730     15723     15722     15727
     15724     15723     15725     15724     15723     15726     15725     15723     15726
     15727     15730     15731     15727     15730     15732     15727     15730     15733
     15728     15727     15729     15728     15727     15730     15729     15727     15730
     15730     15733     15734     15730     15733     15735     15731     15730     15732
     15731     15730     15733     15732     15730     15733     15733     15735     15736
     15733     15735     15740     15734     15733     15735     15735     15736     15737
     15735     15736     15738     15735     15736     15739     15735     15740     15741
     15735     15740     15742     15735     15740     15743     15736     15735     15740
     15737     15736     15738     15737     15736     15739     15738     15736     15739
     15740     15743     15744     15740     15743     15745     15741     15740     15742
     15741     15740     15743     15742     15740     15743     15744     15743     15745
     15746     15748     15749     15746     15748     15750     15746     15748     15751
     15746     15752     15753     15746     15752     15754     15746     15752     15755
     15747     15746     15748     15747     15746     15752     15748     15746     15752
     15749     15748     15750     15749     15748     15751     15750     15748     15751
     15752     15755     15756     15752     15755     15757     15752     15755     15758
     15753     15752     15754     15753     15752     15755     15754     15752     15755
     15755     15758     15759     15755     15758     15760     15755     15758     15761
     15756     15755     15757     15756     15755     15758     15757     15755     15758
     15758     15761     15762     15758     15761     15763     15758     15761     15767
     15759     15758     15760     15759     15758     15761     15760     15758     15761
     15761     15763     15764     15761     15763     15765     15761     15763     15766
     15761     15767     15768     15761     15767     15769     15761     15767     15770
     15762     15761     15763     15762     15761     15767     15763     15761     15767
     15764     15763     15765     15764     15763     15766     15765     15763     15766
     15768     15767     15769     15768     15767     15770     15769     15767     15770
     15771     15775     15776     15771     15775     15777     15771     15775     15778
     15772     15771     15773     15772     15771     15774     15772     15771     15775
     15773     15771     15774     15773     15771     15775     15774     15771     15775
     15775     15778     15779     15775     15778     15780     15775     15778     15784
     15776     15775     15777     15776     15775     15778     15777     15775     15778
     15778     15784     15781     15779     15778     15780     15779     15778     15784
     15780     15778     15784     15781     15785     15786     15782     15781     15783
     15782     15781     15784     15782     15781     15785     15783     15781     15784
     15783     15781     15785     15784     15781     15785     15785     15786     15787
     15785     15786     15788     15785     15786     15789     15786     15789     15790
     15786     15789     15791     15786     15789     15797     15787     15786     15788
     15787     15786     15789     15788     15786     15789     15789     15791     15792
     15789     15797     15798     15789     15797     15799     15789     15797     15800
     15790     15789     15791     15790     15789     15797     15791     15789     15797
     15791     15792     15793     15791     15792     15794     15792     15794     15795
     15792     15794     15796     15792     15794     15806     15793     15792     15794
     15794     15806     15807     15794     15806     15808     15794     15806     15809
     15795     15794     15796     15795     15794     15806     15796     15794     15806
     15797     15800     15801     15798     15797     15799     15798     15797     15800
     15799     15797     15800     15800     15801     15802     15800     15801     15803
     15801     15803     15804     15801     15803     15805     15801     15803     15853
     15802     15801     15803     15803     15853     15854     15803     15853     15855
     15803     15853     15856     15804     15803     15805     15804     15803     15853
     15805     15803     15853     15806     15809     15810     15806     15809     15811
     15806     15809     15812     15807     15806     15808     15807     15806     15809
     15808     15806     15809     15809     15812     15813     15809     15812     15814
     15809     15812     15815     15810     15809     15811     15810     15809     15812
     15811     15809     15812     15812     15815     15816     15812     15815     15817
     15812     15815     15818     15813     15812     15814     15813     15812     15815
     15814     15812     15815     15815     15818     15819     15815     15818     15820
     15815     15818     15821     15816     15815     15817     15816     15815     15818
     15817     15815     15818     15818     15821     15822     15818     15821     15823
     15818     15821     15824     15819     15818     15820     15819     15818     15821
     15820     15818     15821     15821     15824     15825     15821     15824     15826
     15822     15821     15823     15822     15821     15824     15823     15821     15824
     15824     15826     15827     15824     15826     15828     15825     15824     15826
     15826     15828     15829     15826     15828     15830     15826     15828     15831
     15827     15826     15828     15828     15831     15832     15828     15831     15833
     15828     15831     15834     15829     15828     15830     15829     15828     15831
     15830     15828     15831     15831     15834     15835     15831     15834     15836
     15831     15834     15837     15832     15831     15833     15832     15831     15834
     15833     15831     15834     15834     15837     15838     15834     15837     15839
     15834     15837     15840     15835     15834     15836     15835     15834     15837
     15836     15834     15837     15837     15840     15841     15837     15840     15842
     15837     15840     15843     15838     15837     15839     15838     15837     15840
     15839     15837     15840     15840     15843     15844     15840     15843     15845
     15840     15843     15846     15841     15840     15842     15841     15840     15843
     15842     15840     15843     15843     15846     15847     15843     15846     15848
     15843     15846     15849     15844     15843     15845     15844     15843     15846
     15845     15843     15846     15846     15849     15850     15846     15849     15851
     15846     15849     15852     15847     15846     15848     15847     15846     15849
     15848     15846     15849     15850     15849     15851     15850     15849     15852
     15851     15849     15852     15853     15856     15857     15853     15856     15858
     15853     15856     15859     15854     15853     15855     15854     15853     15856
     15855     15853     15856     15856     15859     15860     15856     15859     15861
     15856     15859     15862     15857     15856     15858     15857     15856     15859
     15858     15856     15859     15859     15862     15863     15859     15862     15864
     15859     15862     15865     15860     15859     15861     15860     15859     15862
     15861     15859     15862     15862     15865     15866     15862     15865     15867
     15862     15865     15868     15863     15862     15864     15863     15862     15865
     15864     15862     15865     15865     15868     15869     15865     15868     15870
     15865     15868     15871     15866     15865     15867     15866     15865     15868
     15867     15865     15868     15868     15871     15872     15868     15871     15873
     15868     15871     15874     15869     15868     15870     15869     15868     15871
     15870     15868     15871     15871     15874     15875     15871     15874     15876
     15871     15874     15877     15872     15871     15873     15872     15871     15874
     15873     15871     15874     15874     15877     15878     15874     15877     15879
     15874     15877     15880     15875     15874     15876     15875     15874     15877
     15876     15874     15877     15877     15880     15881     15877     15880     15882
     15877     15880     15883     15878     15877     15879     15878     15877     15880
     15879     15877     15880     15880     15883     15884     15880     15883     15885
     15880     15883     15886     15881     15880     15882     15881     15880     15883
     15882     15880     15883     15883     15886     15887     15883     15886     15888
     15883     15886     15889     15884     15883     15885     15884     15883     15886
     15885     15883     15886     15886     15889     15890     15886     15889     15891
     15886     15889     15892     15887     15886     15888     15887     15886     15889
     15888     15886     15889     15889     15892     15893     15889     15892     15894
     15889     15892     15895     15890     15889     15891     15890     15889     15892
     15891     15889     15892     15892     15895     15896     15892     15895     15897
     15892     15895     15898     15893     15892     15894     15893     15892     15895
     15894     15892     15895     15895     15898     15899     15895     15898     15900
     15895     15898     15901     15896     15895     15897     15896     15895     15898
     15897     15895     15898     15899     15898     15900     15899     15898     15901
     15900     15898     15901     15902     15903     15904     15902     15903     15905
     15902     15903     15906     15902     15907     15908     15902     15907     15909
     15902     15907     15910     15902     15911     15912     15902     15911     15913
     15902     15911     15914     15902     15915     15916     15902     15915     15917
     15902     15915     15918     15903     15902     15907     15903     15902     15911
     15903     15902     15915     15904     15903     15905     15904     15903     15906
     15905     15903     15906     15907     15902     15911     15907     15902     15915
     15908     15907     15909     15908     15907     15910     15909     15907     15910
     15911     15902     15915     15912     15911     15913     15912     15911     15914
     15913     15911     15914     15915     15918     15919     15915     15918     15920
     15915     15918     15925     15916     15915     15917     15916     15915     15918
     15917     15915     15918     15918     15925     15921     15919     15918     15920
     15919     15918     15925     15920     15918     15925     15921     15924     15926
     15922     15921     15923     15922     15921     15924     15922     15921     15925
     15923     15921     15924     15923     15921     15925     15924     15921     15925
     15924     15926     15927     15924     15926     15928     15924     15926     15931
     15926     15931     15929     15926     15931     15932     15926     15931     15933
     15927     15926     15928     15927     15926     15931     15928     15926     15931
     15929     15931     15932     15929     15931     15933     15929     15981     15982
     15929     15981     15983     15930     15929     15931     15930     15929     15981
     15931     15929     15981     15931     15933     15934     15931     15933     15935
     15931     15933     15937     15932     15931     15933     15933     15935     15936
     15933     15937     15938     15933     15937     15939     15934     15933     15935
     15934     15933     15937     15935     15933     15937     15937     15939     15940
     15937     15939     15941     15938     15937     15939     15939     15941     15942
     15939     15941     15943     15939     15941     15944     15940     15939     15941
     15941     15944     15945     15941     15944     15946     15941     15944     15947
     15942     15941     15943     15942     15941     15944     15943     15941     15944
     15944     15947     15948     15944     15947     15949     15944     15947     15950
     15945     15944     15946     15945     15944     15947     15946     15944     15947
     15947     15950     15951     15947     15950     15952     15947     15950     15953
     15948     15947     15949     15948     15947     15950     15949     15947     15950
     15950     15953     15954     15950     15953     15955     15950     15953     15956
     15951     15950     15952     15951     15950     15953     15952     15950     15953
     15953     15956     15957     15953     15956     15958     15953     15956     15959
     15954     15953     15955     15954     15953     15956     15955     15953     15956
     15956     15959     15960     15956     15959     15961     15956     15959     15962
     15957     15956     15958     15957     15956     15959     15958     15956     15959
     15959     15962     15963     15959     15962     15964     15959     15962     15965
     15960     15959     15961     15960     15959     15962     15961     15959     15962
     15962     15965     15966     15962     15965     15967     15962     15965     15968
     15963     15962     15964     15963     15962     15965     15964     15962     15965
     15965     15968     15969     15965     15968     15970     15965     15968     15971
     15966     15965     15967     15966     15965     15968     15967     15965     15968
     15968     15971     15972     15968     15971     15973     15968     15971     15974
     15969     15968     15970     15969     15968     15971     15970     15968     15971
     15971     15974     15975     15971     15974     15976     15971     15974     15977
     15972     15971     15973     15972     15971     15974     15973     15971     15974
     15974     15977     15978     15974     15977     15979     15974     15977     15980
     15975     15974     15976     15975     15974     15977     15976     15974     15977
     15978     15977     15979     15978     15977     15980     15979     15977     15980
     15981     15983     15984     15981     15983     15985     15981     15983     15986
     15982     15981     15983     15983     15986     15987     15983     15986     15988
     15983     15986     15989     15984     15983     15985     15984     15983     15986
     15985     15983     15986     15986     15989     15990     15986     15989     15991
     15986     15989     15992     15987     15986     15988     15987     15986     15989
     15988     15986     15989     15989     15992     15993     15989     15992     15994
     15989     15992     15995     15990     15989     15991     15990     15989     15992
     15991     15989     15992     15992     15995     15996     15992     15995     15997
     15992     15995     15998     15993     15992     15994     15993     15992     15995
     15994     15992     15995     15995     15998     15999     15995     15998     16000
     15995     15998     16001     15996     15995     15997     15996     15995     15998
     15997     15995     15998     15998     16001     16002     15998     16001     16003
     15998     16001     16004     15999     15998     16000     15999     15998     16001
     16000     15998     16001     16001     16004     16005     16001     16004     16006
     16002     16001     16003     16002     16001     16004     16003     16001     16004
     16004     16006     16007     16004     16006     16008     16005     16004     16006
     16006     16008     16009     16006     16008     16010     16006     16008     16011
     16007     16006     16008     16008     16011     16012     16008     16011     16013
     16008     16011     16014     16009     16008     16010     16009     16008     16011
     16010     16008     16011     16011     16014     16015     16011     16014     16016
     16011     16014     16017     16012     16011     16013     16012     16011     16014
     16013     16011     16014     16014     16017     16018     16014     16017     16019
     16014     16017     16020     16015     16014     16016     16015     16014     16017
     16016     16014     16017     16017     16020     16021     16017     16020     16022
     16017     16020     16023     16018     16017     16019     16018     16017     16020
     16019     16017     16020     16020     16023     16024     16020     16023     16025
     16020     16023     16026     16021     16020     16022     16021     16020     16023
     16022     16020     16023     16023     16026     16027     16023     16026     16028
     16023     16026     16029     16024     16023     16025     16024     16023     16026
     16025     16023     16026     16026     16029     16030     16026     16029     16031
     16026     16029     16032     16027     16026     16028     16027     16026     16029
     16028     16026     16029     16030     16029     16031     16030     16029     16032
     16031     16029     16032     16033     16035     16036     16033     16037     16038
     16033     16037     16039     16033     16037     16040     16033     16079     16076
     16033     16079     16080     16033     16079     16081     16034     16033     16035
     16034     16033     16037     16034     16033     16079     16035     16033     16037
     16035     16033     16079     16037     16033     16079     16037     16040     16041
     16037     16040     16071     16038     16037     16039     16038     16037     16040
     16039     16037     16040     16040     16041     16042     16040     16041     16043
     16040     16071     16069     16040     16071     16072     16040     16071     16076
     16041     16040     16071     16041     16043     16044     16041     16043     16045
     16041     16043     16046     16042     16041     16043     16043     16046     16047
     16043     16046     16048     16043     16046     16069     16044     16043     16045
     16044     16043     16046     16045     16043     16046     16046     16048     16049
     16046     16048     16050     16046     16048     16058     16046     16069     16066
     16046     16069     16070     16046     16069     16071     16047     16046     16048
     16047     16046     16069     16048     16046     16069     16048     16050     16051
     16048     16050     16052     16048     16050     16053     16048     16058     16056
     16048     16058     16059     16048     16058     16063     16049     16048     16050
     16049     16048     16058     16050     16048     16058     16050     16053     16054
     16050     16053     16055     16050     16053     16056     16051     16050     16052
     16051     16050     16053     16052     16050     16053     16053     16056     16057
     16053     16056     16058     16053     16056     16082     16054     16053     16055
     16054     16053     16056     16055     16053     16056     16056     16058     16059
     16056     16058     16063     16056     16082     16083     16056     16082     16084
     16056     16082     16088     16057     16056     16058     16057     16056     16082
     16058     16056     16082     16058     16059     16060     16058     16059     16061
     16058     16059     16062     16058     16063     16064     16058     16063     16065
     16058     16063     16066     16059     16058     16063     16060     16059     16061
     16060     16059     16062     16061     16059     16062     16063     16066     16067
     16063     16066     16068     16063     16066     16069     16064     16063     16065
     16064     16063     16066     16065     16063     16066     16066     16069     16070
     16066     16069     16071     16067     16066     16068     16067     16066     16069
     16068     16066     16069     16069     16071     16072     16069     16071     16076
     16070     16069     16071     16071     16072     16073     16071     16072     16074
     16071     16072     16075     16071     16076     16077     16071     16076     16078
     16071     16076     16079     16072     16071     16076     16073     16072     16074
     16073     16072     16075     16074     16072     16075     16076     16079     16080
     16076     16079     16081     16077     16076     16078     16077     16076     16079
     16078     16076     16079     16080     16079     16081     16082     16084     16085
     16082     16084     16086     16082     16084     16087     16082     16088     16089
     16082     16088     16090     16082     16088     16091     16083     16082     16084
     16083     16082     16088     16084     16082     16088     16085     16084     16086
     16085     16084     16087     16086     16084     16087     16088     16091     16092
     16088     16091     16093     16088     16091     16094     16089     16088     16090
     16089     16088     16091     16090     16088     16091     16091     16094     16095
     16091     16094     16096     16091     16094     16097     16092     16091     16093
     16092     16091     16094     16093     16091     16094     16094     16097     16098
     16094     16097     16099     16094     16097     16103     16095     16094     16096
     16095     16094     16097     16096     16094     16097     16097     16099     16100
     16097     16099     16101     16097     16099     16102     16097     16103     16104
     16097     16103     16105     16097     16103     16106     16098     16097     16099
     16098     16097     16103     16099     16097     16103     16100     16099     16101
     16100     16099     16102     16101     16099     16102     16104     16103     16105
     16104     16103     16106     16105     16103     16106     16107     16109     16110
     16107     16111     16112     16107     16111     16113     16107     16111     16114
     16107     16153     16150     16107     16153     16154     16107     16153     16155
     16108     16107     16109     16108     16107     16111     16108     16107     16153
     16109     16107     16111     16109     16107     16153     16111     16107     16153
     16111     16114     16115     16111     16114     16145     16112     16111     16113
     16112     16111     16114     16113     16111     16114     16114     16115     16116
     16114     16115     16117     16114     16145     16143     16114     16145     16146
     16114     16145     16150     16115     16114     16145     16115     16117     16118
     16115     16117     16119     16115     16117     16120     16116     16115     16117
     16117     16120     16121     16117     16120     16122     16117     16120     16143
     16118     16117     16119     16118     16117     16120     16119     16117     16120
     16120     16122     16123     16120     16122     16124     16120     16122     16132
     16120     16143     16140     16120     16143     16144     16120     16143     16145
     16121     16120     16122     16121     16120     16143     16122     16120     16143
     16122     16124     16125     16122     16124     16126     16122     16124     16127
     16122     16132     16130     16122     16132     16133     16122     16132     16137
     16123     16122     16124     16123     16122     16132     16124     16122     16132
     16124     16127     16128     16124     16127     16129     16124     16127     16130
     16125     16124     16126     16125     16124     16127     16126     16124     16127
     16127     16130     16131     16127     16130     16132     16127     16130     16156
     16128     16127     16129     16128     16127     16130     16129     16127     16130
     16130     16132     16133     16130     16132     16137     16130     16156     16157
     16130     16156     16158     16130     16156     16162     16131     16130     16132
     16131     16130     16156     16132     16130     16156     16132     16133     16134
     16132     16133     16135     16132     16133     16136     16132     16137     16138
     16132     16137     16139     16132     16137     16140     16133     16132     16137
     16134     16133     16135     16134     16133     16136     16135     16133     16136
     16137     16140     16141     16137     16140     16142     16137     16140     16143
     16138     16137     16139     16138     16137     16140     16139     16137     16140
     16140     16143     16144     16140     16143     16145     16141     16140     16142
     16141     16140     16143     16142     16140     16143     16143     16145     16146
     16143     16145     16150     16144     16143     16145     16145     16146     16147
     16145     16146     16148     16145     16146     16149     16145     16150     16151
     16145     16150     16152     16145     16150     16153     16146     16145     16150
     16147     16146     16148     16147     16146     16149     16148     16146     16149
     16150     16153     16154     16150     16153     16155     16151     16150     16152
     16151     16150     16153     16152     16150     16153     16154     16153     16155
     16156     16158     16159     16156     16158     16160     16156     16158     16161
     16156     16162     16163     16156     16162     16164     16156     16162     16165
     16157     16156     16158     16157     16156     16162     16158     16156     16162
     16159     16158     16160     16159     16158     16161     16160     16158     16161
     16162     16165     16166     16162     16165     16167     16162     16165     16168
     16163     16162     16164     16163     16162     16165     16164     16162     16165
     16165     16168     16169     16165     16168     16170     16165     16168     16171
     16166     16165     16167     16166     16165     16168     16167     16165     16168
     16168     16171     16172     16168     16171     16173     16168     16171     16177
     16169     16168     16170     16169     16168     16171     16170     16168     16171
     16171     16173     16174     16171     16173     16175     16171     16173     16176
     16171     16177     16178     16171     16177     16179     16171     16177     16180
     16172     16171     16173     16172     16171     16177     16173     16171     16177
     16174     16173     16175     16174     16173     16176     16175     16173     16176
     16178     16177     16179     16178     16177     16180     16179     16177     16180
     16181     16185     16186     16181     16185     16187     16181     16185     16190
     16182     16181     16183     16182     16181     16184     16182     16181     16185
     16183     16181     16184     16183     16181     16185     16184     16181     16185
     16185     16187     16188     16185     16187     16189     16185     16190     16191
     16185     16190     16192     16185     16190     16196     16186     16185     16187
     16186     16185     16190     16187     16185     16190     16188     16187     16189
     16190     16196     16193     16191     16190     16192     16191     16190     16196
     16192     16190     16196     16193     16197     16198     16194     16193     16195
     16194     16193     16196     16194     16193     16197     16195     16193     16196
     16195     16193     16197     16196     16193     16197     16197     16198     16199
     16197     16198     16200     16197     16198     16201     16198     16201     16202
     16198     16201     16203     16198     16201     16209     16199     16198     16200
     16199     16198     16201     16200     16198     16201     16201     16203     16204
     16201     16209     16210     16201     16209     16211     16201     16209     16212
     16202     16201     16203     16202     16201     16209     16203     16201     16209
     16203     16204     16205     16203     16204     16206     16204     16206     16207
     16204     16206     16208     16204     16206     16218     16205     16204     16206
     16206     16218     16219     16206     16218     16220     16206     16218     16221
     16207     16206     16208     16207     16206     16218     16208     16206     16218
     16209     16212     16213     16210     16209     16211     16210     16209     16212
     16211     16209     16212     16212     16213     16214     16212     16213     16215
     16213     16215     16216     16213     16215     16217     16213     16215     16265
     16214     16213     16215     16215     16265     16266     16215     16265     16267
     16215     16265     16268     16216     16215     16217     16216     16215     16265
     16217     16215     16265     16218     16221     16222     16218     16221     16223
     16218     16221     16224     16219     16218     16220     16219     16218     16221
     16220     16218     16221     16221     16224     16225     16221     16224     16226
     16222     16221     16223     16222     16221     16224     16223     16221     16224
     16224     16226     16227     16224     16226     16228     16225     16224     16226
     16226     16228     16229     16226     16228     16230     16226     16228     16231
     16227     16226     16228     16228     16231     16232     16228     16231     16233
     16229     16228     16230     16229     16228     16231     16230     16228     16231
     16231     16233     16234     16231     16233     16235     16232     16231     16233
     16233     16235     16236     16233     16235     16237     16233     16235     16238
     16234     16233     16235     16235     16238     16239     16235     16238     16240
     16236     16235     16237     16236     16235     16238     16237     16235     16238
     16238     16240     16241     16238     16240     16242     16239     16238     16240
     16240     16242     16243     16240     16242     16244     16240     16242     16245
     16241     16240     16242     16242     16245     16246     16242     16245     16247
     16243     16242     16244     16243     16242     16245     16244     16242     16245
     16245     16247     16248     16245     16247     16249     16246     16245     16247
     16247     16249     16250     16247     16249     16251     16247     16249     16252
     16248     16247     16249     16249     16252     16253     16249     16252     16254
     16249     16252     16255     16250     16249     16251     16250     16249     16252
     16251     16249     16252     16252     16255     16256     16252     16255     16257
     16252     16255     16258     16253     16252     16254     16253     16252     16255
     16254     16252     16255     16255     16258     16259     16255     16258     16260
     16255     16258     16261     16256     16255     16257     16256     16255     16258
     16257     16255     16258     16258     16261     16262     16258     16261     16263
     16258     16261     16264     16259     16258     16260     16259     16258     16261
     16260     16258     16261     16262     16261     16263     16262     16261     16264
     16263     16261     16264     16265     16268     16269     16265     16268     16270
     16265     16268     16271     16266     16265     16267     16266     16265     16268
     16267     16265     16268     16268     16271     16272     16268     16271     16273
     16268     16271     16274     16269     16268     16270     16269     16268     16271
     16270     16268     16271     16271     16274     16275     16271     16274     16276
     16271     16274     16277     16272     16271     16273     16272     16271     16274
     16273     16271     16274     16274     16277     16278     16274     16277     16279
     16274     16277     16280     16275     16274     16276     16275     16274     16277
     16276     16274     16277     16277     16280     16281     16277     16280     16282
     16277     16280     16283     16278     16277     16279     16278     16277     16280
     16279     16277     16280     16280     16283     16284     16280     16283     16285
     16280     16283     16286     16281     16280     16282     16281     16280     16283
     16282     16280     16283     16283     16286     16287     16283     16286     16288
     16283     16286     16289     16284     16283     16285     16284     16283     16286
     16285     16283     16286     16286     16289     16290     16286     16289     16291
     16286     16289     16292     16287     16286     16288     16287     16286     16289
     16288     16286     16289     16289     16292     16293     16289     16292     16294
     16289     16292     16295     16290     16289     16291     16290     16289     16292
     16291     16289     16292     16292     16295     16296     16292     16295     16297
     16292     16295     16298     16293     16292     16294     16293     16292     16295
     16294     16292     16295     16295     16298     16299     16295     16298     16300
     16295     16298     16301     16296     16295     16297     16296     16295     16298
     16297     16295     16298     16298     16301     16302     16298     16301     16303
     16298     16301     16304     16299     16298     16300     16299     16298     16301
     16300     16298     16301     16301     16304     16305     16301     16304     16306
     16301     16304     16307     16302     16301     16303     16302     16301     16304
     16303     16301     16304     16304     16307     16308     16304     16307     16309
     16304     16307     16310     16305     16304     16306     16305     16304     16307
     16306     16304     16307     16307     16310     16311     16307     16310     16312
     16307     16310     16313     16308     16307     16309     16308     16307     16310
     16309     16307     16310     16311     16310     16312     16311     16310     16313
     16312     16310     16313     16314     16315     16316     16314     16315     16317
     16314     16315     16318     16314     16319     16320     16314     16319     16321
     16314     16319     16322     16314     16323     16324     16314     16323     16325
     16314     16323     16326     16314     16327     16328     16314     16327     16329
     16314     16327     16330     16315     16314     16319     16315     16314     16323
     16315     16314     16327     16316     16315     16317     16316     16315     16318
     16317     16315     16318     16319     16314     16323     16319     16314     16327
     16320     16319     16321     16320     16319     16322     16321     16319     16322
     16323     16314     16327     16324     16323     16325     16324     16323     16326
     16325     16323     16326     16327     16330     16331     16327     16330     16332
     16327     16330     16337     16328     16327     16329     16328     16327     16330
     16329     16327     16330     16330     16337     16333     16331     16330     16332
     16331     16330     16337     16332     16330     16337     16333     16336     16338
     16334     16333     16335     16334     16333     16336     16334     16333     16337
     16335     16333     16336     16335     16333     16337     16336     16333     16337
     16336     16338     16339     16336     16338     16340     16336     16338     16343
     16338     16343     16341     16338     16343     16344     16338     16343     16345
     16339     16338     16340     16339     16338     16343     16340     16338     16343
     16341     16343     16344     16341     16343     16345     16341     16393     16394
     16341     16393     16395     16342     16341     16343     16342     16341     16393
     16343     16341     16393     16343     16345     16346     16343     16345     16347
     16343     16345     16349     16344     16343     16345     16345     16347     16348
     16345     16349     16350     16345     16349     16351     16346     16345     16347
     16346     16345     16349     16347     16345     16349     16349     16351     16352
     16349     16351     16353     16350     16349     16351     16351     16353     16354
     16351     16353     16355     16351     16353     16356     16352     16351     16353
     16353     16356     16357     16353     16356     16358     16353     16356     16359
     16354     16353     16355     16354     16353     16356     16355     16353     16356
     16356     16359     16360     16356     16359     16361     16356     16359     16362
     16357     16356     16358     16357     16356     16359     16358     16356     16359
     16359     16362     16363     16359     16362     16364     16359     16362     16365
     16360     16359     16361     16360     16359     16362     16361     16359     16362
     16362     16365     16366     16362     16365     16367     16362     16365     16368
     16363     16362     16364     16363     16362     16365     16364     16362     16365
     16365     16368     16369     16365     16368     16370     16365     16368     16371
     16366     16365     16367     16366     16365     16368     16367     16365     16368
     16368     16371     16372     16368     16371     16373     16368     16371     16374
     16369     16368     16370     16369     16368     16371     16370     16368     16371
     16371     16374     16375     16371     16374     16376     16371     16374     16377
     16372     16371     16373     16372     16371     16374     16373     16371     16374
     16374     16377     16378     16374     16377     16379     16374     16377     16380
     16375     16374     16376     16375     16374     16377     16376     16374     16377
     16377     16380     16381     16377     16380     16382     16377     16380     16383
     16378     16377     16379     16378     16377     16380     16379     16377     16380
     16380     16383     16384     16380     16383     16385     16380     16383     16386
     16381     16380     16382     16381     16380     16383     16382     16380     16383
     16383     16386     16387     16383     16386     16388     16383     16386     16389
     16384     16383     16385     16384     16383     16386     16385     16383     16386
     16386     16389     16390     16386     16389     16391     16386     16389     16392
     16387     16386     16388     16387     16386     16389     16388     16386     16389
     16390     16389     16391     16390     16389     16392     16391     16389     16392
     16393     16395     16396     16393     16395     16397     16393     16395     16398
     16394     16393     16395     16395     16398     16399     16395     16398     16400
     16395     16398     16401     16396     16395     16397     16396     16395     16398
     16397     16395     16398     16398     16401     16402     16398     16401     16403
     16398     16401     16404     16399     16398     16400     16399     16398     16401
     16400     16398     16401     16401     16404     16405     16401     16404     16406
     16401     16404     16407     16402     16401     16403     16402     16401     16404
     16403     16401     16404     16404     16407     16408     16404     16407     16409
     16404     16407     16410     16405     16404     16406     16405     16404     16407
     16406     16404     16407     16407     16410     16411     16407     16410     16412
     16407     16410     16413     16408     16407     16409     16408     16407     16410
     16409     16407     16410     16410     16413     16414     16410     16413     16415
     16410     16413     16416     16411     16410     16412     16411     16410     16413
     16412     16410     16413     16413     16416     16417     16413     16416     16418
     16414     16413     16415     16414     16413     16416     16415     16413     16416
     16416     16418     16419     16416     16418     16420     16417     16416     16418
     16418     16420     16421     16418     16420     16422     16418     16420     16423
     16419     16418     16420     16420     16423     16424     16420     16423     16425
     16420     16423     16426     16421     16420     16422     16421     16420     16423
     16422     16420     16423     16423     16426     16427     16423     16426     16428
     16423     16426     16429     16424     16423     16425     16424     16423     16426
     16425     16423     16426     16426     16429     16430     16426     16429     16431
     16426     16429     16432     16427     16426     16428     16427     16426     16429
     16428     16426     16429     16429     16432     16433     16429     16432     16434
     16429     16432     16435     16430     16429     16431     16430     16429     16432
     16431     16429     16432     16432     16435     16436     16432     16435     16437
     16432     16435     16438     16433     16432     16434     16433     16432     16435
     16434     16432     16435     16435     16438     16439     16435     16438     16440
     16435     16438     16441     16436     16435     16437     16436     16435     16438
     16437     16435     16438     16438     16441     16442     16438     16441     16443
     16438     16441     16444     16439     16438     16440     16439     16438     16441
     16440     16438     16441     16442     16441     16443     16442     16441     16444
     16443     16441     16444     16445     16446     16447     16445     16446     16448
     16445     16446     16449     16445     16450     16451     16445     16450     16452
     16445     16450     16453     16445     16454     16455     16445     16454     16456
     16445     16454     16457     16445     16458     16459     16445     16458     16460
     16445     16458     16461     16446     16445     16450     16446     16445     16454
     16446     16445     16458     16447     16446     16448     16447     16446     16449
     16448     16446     16449     16450     16445     16454     16450     16445     16458
     16451     16450     16452     16451     16450     16453     16452     16450     16453
     16454     16445     16458     16455     16454     16456     16455     16454     16457
     16456     16454     16457     16458     16461     16462     16458     16461     16463
     16458     16461     16467     16459     16458     16460     16459     16458     16461
     16460     16458     16461     16461     16467     16464     16462     16461     16463
     16462     16461     16467     16463     16461     16467     16464     16468     16469
     16465     16464     16466     16465     16464     16467     16465     16464     16468
     16466     16464     16467     16466     16464     16468     16467     16464     16468
     16468     16469     16470     16468     16469     16471     16468     16469     16472
     16469     16472     16473     16469     16472     16474     16469     16472     16480
     16470     16469     16471     16470     16469     16472     16471     16469     16472
     16472     16474     16475     16472     16480     16481     16472     16480     16482
     16472     16480     16483     16473     16472     16474     16473     16472     16480
     16474     16472     16480     16474     16475     16476     16474     16475     16477
     16475     16477     16478     16475     16477     16479     16475     16477     16489
     16476     16475     16477     16477     16489     16490     16477     16489     16491
     16477     16489     16492     16478     16477     16479     16478     16477     16489
     16479     16477     16489     16480     16483     16484     16481     16480     16482
     16481     16480     16483     16482     16480     16483     16483     16484     16485
     16483     16484     16486     16484     16486     16487     16484     16486     16488
     16484     16486     16534     16485     16484     16486     16486     16534     16535
     16486     16534     16536     16486     16534     16537     16487     16486     16488
     16487     16486     16534     16488     16486     16534     16489     16492     16493
     16489     16492     16494     16489     16492     16495     16490     16489     16491
     16490     16489     16492     16491     16489     16492     16492     16495     16496
     16492     16495     16497     16492     16495     16498     16493     16492     16494
     16493     16492     16495     16494     16492     16495     16495     16498     16499
     16495     16498     16500     16495     16498     16501     16496     16495     16497
     16496     16495     16498     16497     16495     16498     16498     16501     16502
     16498     16501     16503     16498     16501     16504     16499     16498     16500
     16499     16498     16501     16500     16498     16501     16501     16504     16505
     16501     16504     16506     16501     16504     16507     16502     16501     16503
     16502     16501     16504     16503     16501     16504     16504     16507     16508
     16504     16507     16509     16505     16504     16506     16505     16504     16507
     16506     16504     16507     16507     16509     16510     16507     16509     16511
     16508     16507     16509     16509     16511     16512     16509     16511     16513
     16509     16511     16514     16510     16509     16511     16511     16514     16515
     16511     16514     16516     16512     16511     16513     16512     16511     16514
     16513     16511     16514     16514     16516     16517     16514     16516     16518
     16515     16514     16516     16516     16518     16519     16516     16518     16520
     16516     16518     16521     16517     16516     16518     16518     16521     16522
     16518     16521     16523     16518     16521     16524     16519     16518     16520
     16519     16518     16521     16520     16518     16521     16521     16524     16525
     16521     16524     16526     16521     16524     16527     16522     16521     16523
     16522     16521     16524     16523     16521     16524     16524     16527     16528
     16524     16527     16529     16524     16527     16530     16525     16524     16526
     16525     16524     16527     16526     16524     16527     16527     16530     16531
     16527     16530     16532     16527     16530     16533     16528     16527     16529
     16528     16527     16530     16529     16527     16530     16531     16530     16532
     16531     16530     16533     16532     16530     16533     16534     16537     16538
     16534     16537     16539     16534     16537     16540     16535     16534     16536
     16535     16534     16537     16536     16534     16537     16537     16540     16541
     16537     16540     16542     16537     16540     16543     16538     16537     16539
     16538     16537     16540     16539     16537     16540     16540     16543     16544
     16540     16543     16545     16540     16543     16546     16541     16540     16542
     16541     16540     16543     16542     16540     16543     16543     16546     16547
     16543     16546     16548     16543     16546     16549     16544     16543     16545
     16544     16543     16546     16545     16543     16546     16546     16549     16550
     16546     16549     16551     16546     16549     16552     16547     16546     16548
     16547     16546     16549     16548     16546     16549     16549     16552     16553
     16549     16552     16554     16549     16552     16555     16550     16549     16551
     16550     16549     16552     16551     16549     16552     16552     16555     16556
     16552     16555     16557     16552     16555     16558     16553     16552     16554
     16553     16552     16555     16554     16552     16555     16555     16558     16559
     16555     16558     16560     16555     16558     16561     16556     16555     16557
     16556     16555     16558     16557     16555     16558     16558     16561     16562
     16558     16561     16563     16558     16561     16564     16559     16558     16560
     16559     16558     16561     16560     16558     16561     16561     16564     16565
     16561     16564     16566     16561     16564     16567     16562     16561     16563
     16562     16561     16564     16563     16561     16564     16564     16567     16568
     16564     16567     16569     16564     16567     16570     16565     16564     16566
     16565     16564     16567     16566     16564     16567     16567     16570     16571
     16567     16570     16572     16567     16570     16573     16568     16567     16569
     16568     16567     16570     16569     16567     16570     16570     16573     16574
     16570     16573     16575     16570     16573     16576     16571     16570     16572
     16571     16570     16573     16572     16570     16573     16573     16576     16577
     16573     16576     16578     16573     16576     16579     16574     16573     16575
     16574     16573     16576     16575     16573     16576     16576     16579     16580
     16576     16579     16581     16576     16579     16582     16577     16576     16578
     16577     16576     16579     16578     16576     16579     16580     16579     16581
     16580     16579     16582     16581     16579     16582     16583     16585     16586
     16583     16587     16588     16583     16587     16589     16583     16587     16590
     16583     16629     16626     16583     16629     16630     16583     16629     16631
     16584     16583     16585     16584     16583     16587     16584     16583     16629
     16585     16583     16587     16585     16583     16629     16587     16583     16629
     16587     16590     16591     16587     16590     16621     16588     16587     16589
     16588     16587     16590     16589     16587     16590     16590     16591     16592
     16590     16591     16593     16590     16621     16619     16590     16621     16622
     16590     16621     16626     16591     16590     16621     16591     16593     16594
     16591     16593     16595     16591     16593     16596     16592     16591     16593
     16593     16596     16597     16593     16596     16598     16593     16596     16619
     16594     16593     16595     16594     16593     16596     16595     16593     16596
     16596     16598     16599     16596     16598     16600     16596     16598     16608
     16596     16619     16616     16596     16619     16620     16596     16619     16621
     16597     16596     16598     16597     16596     16619     16598     16596     16619
     16598     16600     16601     16598     16600     16602     16598     16600     16603
     16598     16608     16606     16598     16608     16609     16598     16608     16613
     16599     16598     16600     16599     16598     16608     16600     16598     16608
     16600     16603     16604     16600     16603     16605     16600     16603     16606
     16601     16600     16602     16601     16600     16603     16602     16600     16603
     16603     16606     16607     16603     16606     16608     16603     16606     16632
     16604     16603     16605     16604     16603     16606     16605     16603     16606
     16606     16608     16609     16606     16608     16613     16606     16632     16633
     16606     16632     16634     16606     16632     16638     16607     16606     16608
     16607     16606     16632     16608     16606     16632     16608     16609     16610
     16608     16609     16611     16608     16609     16612     16608     16613     16614
     16608     16613     16615     16608     16613     16616     16609     16608     16613
     16610     16609     16611     16610     16609     16612     16611     16609     16612
     16613     16616     16617     16613     16616     16618     16613     16616     16619
     16614     16613     16615     16614     16613     16616     16615     16613     16616
     16616     16619     16620     16616     16619     16621     16617     16616     16618
     16617     16616     16619     16618     16616     16619     16619     16621     16622
     16619     16621     16626     16620     16619     16621     16621     16622     16623
     16621     16622     16624     16621     16622     16625     16621     16626     16627
     16621     16626     16628     16621     16626     16629     16622     16621     16626
     16623     16622     16624     16623     16622     16625     16624     16622     16625
     16626     16629     16630     16626     16629     16631     16627     16626     16628
     16627     16626     16629     16628     16626     16629     16630     16629     16631
     16632     16634     16635     16632     16634     16636     16632     16634     16637
     16632     16638     16639     16632     16638     16640     16632     16638     16641
     16633     16632     16634     16633     16632     16638     16634     16632     16638
     16635     16634     16636     16635     16634     16637     16636     16634     16637
     16638     16641     16642     16638     16641     16643     16638     16641     16644
     16639     16638     16640     16639     16638     16641     16640     16638     16641
     16641     16644     16645     16641     16644     16646     16641     16644     16647
     16642     16641     16643     16642     16641     16644     16643     16641     16644
     16644     16647     16648     16644     16647     16649     16644     16647     16653
     16645     16644     16646     16645     16644     16647     16646     16644     16647
     16647     16649     16650     16647     16649     16651     16647     16649     16652
     16647     16653     16654     16647     16653     16655     16647     16653     16656
     16648     16647     16649     16648     16647     16653     16649     16647     16653
     16650     16649     16651     16650     16649     16652     16651     16649     16652
     16654     16653     16655     16654     16653     16656     16655     16653     16656
     16657     16661     16662     16657     16661     16663     16657     16661     16664
     16658     16657     16659     16658     16657     16660     16658     16657     16661
     16659     16657     16660     16659     16657     16661     16660     16657     16661
     16661     16664     16665     16661     16664     16666     16661     16664     16670
     16662     16661     16663     16662     16661     16664     16663     16661     16664
     16664     16670     16667     16665     16664     16666     16665     16664     16670
     16666     16664     16670     16667     16671     16672     16668     16667     16669
     16668     16667     16670     16668     16667     16671     16669     16667     16670
     16669     16667     16671     16670     16667     16671     16671     16672     16673
     16671     16672     16674     16671     16672     16675     16672     16675     16676
     16672     16675     16677     16672     16675     16683     16673     16672     16674
     16673     16672     16675     16674     16672     16675     16675     16677     16678
     16675     16683     16684     16675     16683     16685     16675     16683     16686
     16676     16675     16677     16676     16675     16683     16677     16675     16683
     16677     16678     16679     16677     16678     16680     16678     16680     16681
     16678     16680     16682     16678     16680     16692     16679     16678     16680
     16680     16692     16693     16680     16692     16694     16680     16692     16695
     16681     16680     16682     16681     16680     16692     16682     16680     16692
     16683     16686     16687     16684     16683     16685     16684     16683     16686
     16685     16683     16686     16686     16687     16688     16686     16687     16689
     16687     16689     16690     16687     16689     16691     16687     16689     16739
     16688     16687     16689     16689     16739     16740     16689     16739     16741
     16689     16739     16742     16690     16689     16691     16690     16689     16739
     16691     16689     16739     16692     16695     16696     16692     16695     16697
     16692     16695     16698     16693     16692     16694     16693     16692     16695
     16694     16692     16695     16695     16698     16699     16695     16698     16700
     16695     16698     16701     16696     16695     16697     16696     16695     16698
     16697     16695     16698     16698     16701     16702     16698     16701     16703
     16698     16701     16704     16699     16698     16700     16699     16698     16701
     16700     16698     16701     16701     16704     16705     16701     16704     16706
     16701     16704     16707     16702     16701     16703     16702     16701     16704
     16703     16701     16704     16704     16707     16708     16704     16707     16709
     16704     16707     16710     16705     16704     16706     16705     16704     16707
     16706     16704     16707     16707     16710     16711     16707     16710     16712
     16708     16707     16709     16708     16707     16710     16709     16707     16710
     16710     16712     16713     16710     16712     16714     16711     16710     16712
     16712     16714     16715     16712     16714     16716     16712     16714     16717
     16713     16712     16714     16714     16717     16718     16714     16717     16719
     16714     16717     16720     16715     16714     16716     16715     16714     16717
     16716     16714     16717     16717     16720     16721     16717     16720     16722
     16717     16720     16723     16718     16717     16719     16718     16717     16720
     16719     16717     16720     16720     16723     16724     16720     16723     16725
     16720     16723     16726     16721     16720     16722     16721     16720     16723
     16722     16720     16723     16723     16726     16727     16723     16726     16728
     16723     16726     16729     16724     16723     16725     16724     16723     16726
     16725     16723     16726     16726     16729     16730     16726     16729     16731
     16726     16729     16732     16727     16726     16728     16727     16726     16729
     16728     16726     16729     16729     16732     16733     16729     16732     16734
     16729     16732     16735     16730     16729     16731     16730     16729     16732
     16731     16729     16732     16732     16735     16736     16732     16735     16737
     16732     16735     16738     16733     16732     16734     16733     16732     16735
     16734     16732     16735     16736     16735     16737     16736     16735     16738
     16737     16735     16738     16739     16742     16743     16739     16742     16744
     16739     16742     16745     16740     16739     16741     16740     16739     16742
     16741     16739     16742     16742     16745     16746     16742     16745     16747
     16742     16745     16748     16743     16742     16744     16743     16742     16745
     16744     16742     16745     16745     16748     16749     16745     16748     16750
     16745     16748     16751     16746     16745     16747     16746     16745     16748
     16747     16745     16748     16748     16751     16752     16748     16751     16753
     16748     16751     16754     16749     16748     16750     16749     16748     16751
     16750     16748     16751     16751     16754     16755     16751     16754     16756
     16751     16754     16757     16752     16751     16753     16752     16751     16754
     16753     16751     16754     16754     16757     16758     16754     16757     16759
     16754     16757     16760     16755     16754     16756     16755     16754     16757
     16756     16754     16757     16757     16760     16761     16757     16760     16762
     16757     16760     16763     16758     16757     16759     16758     16757     16760
     16759     16757     16760     16760     16763     16764     16760     16763     16765
     16760     16763     16766     16761     16760     16762     16761     16760     16763
     16762     16760     16763     16763     16766     16767     16763     16766     16768
     16763     16766     16769     16764     16763     16765     16764     16763     16766
     16765     16763     16766     16766     16769     16770     16766     16769     16771
     16766     16769     16772     16767     16766     16768     16767     16766     16769
     16768     16766     16769     16769     16772     16773     16769     16772     16774
     16769     16772     16775     16770     16769     16771     16770     16769     16772
     16771     16769     16772     16772     16775     16776     16772     16775     16777
     16772     16775     16778     16773     16772     16774     16773     16772     16775
     16774     16772     16775     16775     16778     16779     16775     16778     16780
     16775     16778     16781     16776     16775     16777     16776     16775     16778
     16777     16775     16778     16778     16781     16782     16778     16781     16783
     16778     16781     16784     16779     16778     16780     16779     16778     16781
     16780     16778     16781     16781     16784     16785     16781     16784     16786
     16781     16784     16787     16782     16781     16783     16782     16781     16784
     16783     16781     16784     16785     16784     16786     16785     16784     16787
     16786     16784     16787     16788     16789     16790     16788     16789     16791
     16788     16789     16792     16788     16793     16794     16788     16793     16795
     16788     16793     16796     16788     16797     16798     16788     16797     16799
     16788     16797     16800     16788     16801     16802     16788     16801     16803
     16788     16801     16804     16789     16788     16793     16789     16788     16797
     16789     16788     16801     16790     16789     16791     16790     16789     16792
     16791     16789     16792     16793     16788     16797     16793     16788     16801
     16794     16793     16795     16794     16793     16796     16795     16793     16796
     16797     16788     16801     16798     16797     16799     16798     16797     16800
     16799     16797     16800     16801     16804     16805     16801     16804     16806
     16801     16804     16811     16802     16801     16803     16802     16801     16804
     16803     16801     16804     16804     16811     16807     16805     16804     16806
     16805     16804     16811     16806     16804     16811     16807     16810     16812
     16808     16807     16809     16808     16807     16810     16808     16807     16811
     16809     16807     16810     16809     16807     16811     16810     16807     16811
     16810     16812     16813     16810     16812     16814     16810     16812     16817
     16812     16817     16815     16812     16817     16818     16812     16817     16819
     16813     16812     16814     16813     16812     16817     16814     16812     16817
     16815     16817     16818     16815     16817     16819     16815     16867     16868
     16815     16867     16869     16816     16815     16817     16816     16815     16867
     16817     16815     16867     16817     16819     16820     16817     16819     16821
     16817     16819     16823     16818     16817     16819     16819     16821     16822
     16819     16823     16824     16819     16823     16825     16820     16819     16821
     16820     16819     16823     16821     16819     16823     16823     16825     16826
     16823     16825     16827     16824     16823     16825     16825     16827     16828
     16825     16827     16829     16825     16827     16830     16826     16825     16827
     16827     16830     16831     16827     16830     16832     16827     16830     16833
     16828     16827     16829     16828     16827     16830     16829     16827     16830
     16830     16833     16834     16830     16833     16835     16830     16833     16836
     16831     16830     16832     16831     16830     16833     16832     16830     16833
     16833     16836     16837     16833     16836     16838     16833     16836     16839
     16834     16833     16835     16834     16833     16836     16835     16833     16836
     16836     16839     16840     16836     16839     16841     16836     16839     16842
     16837     16836     16838     16837     16836     16839     16838     16836     16839
     16839     16842     16843     16839     16842     16844     16839     16842     16845
     16840     16839     16841     16840     16839     16842     16841     16839     16842
     16842     16845     16846     16842     16845     16847     16842     16845     16848
     16843     16842     16844     16843     16842     16845     16844     16842     16845
     16845     16848     16849     16845     16848     16850     16845     16848     16851
     16846     16845     16847     16846     16845     16848     16847     16845     16848
     16848     16851     16852     16848     16851     16853     16848     16851     16854
     16849     16848     16850     16849     16848     16851     16850     16848     16851
     16851     16854     16855     16851     16854     16856     16851     16854     16857
     16852     16851     16853     16852     16851     16854     16853     16851     16854
     16854     16857     16858     16854     16857     16859     16854     16857     16860
     16855     16854     16856     16855     16854     16857     16856     16854     16857
     16857     16860     16861     16857     16860     16862     16857     16860     16863
     16858     16857     16859     16858     16857     16860     16859     16857     16860
     16860     16863     16864     16860     16863     16865     16860     16863     16866
     16861     16860     16862     16861     16860     16863     16862     16860     16863
     16864     16863     16865     16864     16863     16866     16865     16863     16866
     16867     16869     16870     16867     16869     16871     16867     16869     16872
     16868     16867     16869     16869     16872     16873     16869     16872     16874
     16869     16872     16875     16870     16869     16871     16870     16869     16872
     16871     16869     16872     16872     16875     16876     16872     16875     16877
     16872     16875     16878     16873     16872     16874     16873     16872     16875
     16874     16872     16875     16875     16878     16879     16875     16878     16880
     16875     16878     16881     16876     16875     16877     16876     16875     16878
     16877     16875     16878     16878     16881     16882     16878     16881     16883
     16878     16881     16884     16879     16878     16880     16879     16878     16881
     16880     16878     16881     16881     16884     16885     16881     16884     16886
     16881     16884     16887     16882     16881     16883     16882     16881     16884
     16883     16881     16884     16884     16887     16888     16884     16887     16889
     16884     16887     16890     16885     16884     16886     16885     16884     16887
     16886     16884     16887     16887     16890     16891     16887     16890     16892
     16888     16887     16889     16888     16887     16890     16889     16887     16890
     16890     16892     16893     16890     16892     16894     16891     16890     16892
     16892     16894     16895     16892     16894     16896     16892     16894     16897
     16893     16892     16894     16894     16897     16898     16894     16897     16899
     16894     16897     16900     16895     16894     16896     16895     16894     16897
     16896     16894     16897     16897     16900     16901     16897     16900     16902
     16897     16900     16903     16898     16897     16899     16898     16897     16900
     16899     16897     16900     16900     16903     16904     16900     16903     16905
     16900     16903     16906     16901     16900     16902     16901     16900     16903
     16902     16900     16903     16903     16906     16907     16903     16906     16908
     16903     16906     16909     16904     16903     16905     16904     16903     16906
     16905     16903     16906     16906     16909     16910     16906     16909     16911
     16906     16909     16912     16907     16906     16908     16907     16906     16909
     16908     16906     16909     16909     16912     16913     16909     16912     16914
     16909     16912     16915     16910     16909     16911     16910     16909     16912
     16911     16909     16912     16912     16915     16916     16912     16915     16917
     16912     16915     16918     16913     16912     16914     16913     16912     16915
     16914     16912     16915     16916     16915     16917     16916     16915     16918
     16917     16915     16918     16919     16923     16924     16919     16923     16925
     16919     16923     16926     16920     16919     16921     16920     16919     16922
     16920     16919     16923     16921     16919     16922     16921     16919     16923
     16922     16919     16923     16923     16926     16927     16923     16926     16928
     16923     16926     16932     16924     16923     16925     16924     16923     16926
     16925     16923     16926     16926     16932     16929     16927     16926     16928
     16927     16926     16932     16928     16926     16932     16929     16933     16934
     16930     16929     16931     16930     16929     16932     16930     16929     16933
     16931     16929     16932     16931     16929     16933     16932     16929     16933
     16933     16934     16935     16933     16934     16936     16933     16934     16937
     16934     16937     16938     16934     16937     16939     16934     16937     16945
     16935     16934     16936     16935     16934     16937     16936     16934     16937
     16937     16939     16940     16937     16945     16946     16937     16945     16947
     16937     16945     16948     16938     16937     16939     16938     16937     16945
     16939     16937     16945     16939     16940     16941     16939     16940     16942
     16940     16942     16943     16940     16942     16944     16940     16942     16954
     16941     16940     16942     16942     16954     16955     16942     16954     16956
     16942     16954     16957     16943     16942     16944     16943     16942     16954
     16944     16942     16954     16945     16948     16949     16946     16945     16947
     16946     16945     16948     16947     16945     16948     16948     16949     16950
     16948     16949     16951     16949     16951     16952     16949     16951     16953
     16949     16951     17001     16950     16949     16951     16951     17001     17002
     16951     17001     17003     16951     17001     17004     16952     16951     16953
     16952     16951     17001     16953     16951     17001     16954     16957     16958
     16954     16957     16959     16954     16957     16960     16955     16954     16956
     16955     16954     16957     16956     16954     16957     16957     16960     16961
     16957     16960     16962     16958     16957     16959     16958     16957     16960
     16959     16957     16960     16960     16962     16963     16960     16962     16964
     16961     16960     16962     16962     16964     16965     16962     16964     16966
     16962     16964     16967     16963     16962     16964     16964     16967     16968
     16964     16967     16969     16965     16964     16966     16965     16964     16967
     16966     16964     16967     16967     16969     16970     16967     16969     16971
     16968     16967     16969     16969     16971     16972     16969     16971     16973
     16969     16971     16974     16970     16969     16971     16971     16974     16975
     16971     16974     16976     16972     16971     16973     16972     16971     16974
     16973     16971     16974     16974     16976     16977     16974     16976     16978
     16975     16974     16976     16976     16978     16979     16976     16978     16980
     16976     16978     16981     16977     16976     16978     16978     16981     16982
     16978     16981     16983     16979     16978     16980     16979     16978     16981
     16980     16978     16981     16981     16983     16984     16981     16983     16985
     16982     16981     16983     16983     16985     16986     16983     16985     16987
     16983     16985     16988     16984     16983     16985     16985     16988     16989
     16985     16988     16990     16985     16988     16991     16986     16985     16987
     16986     16985     16988     16987     16985     16988     16988     16991     16992
     16988     16991     16993     16988     16991     16994     16989     16988     16990
     16989     16988     16991     16990     16988     16991     16991     16994     16995
     16991     16994     16996     16991     16994     16997     16992     16991     16993
     16992     16991     16994     16993     16991     16994     16994     16997     16998
     16994     16997     16999     16994     16997     17000     16995     16994     16996
     16995     16994     16997     16996     16994     16997     16998     16997     16999
     16998     16997     17000     16999     16997     17000     17001     17004     17005
     17001     17004     17006     17001     17004     17007     17002     17001     17003
     17002     17001     17004     17003     17001     17004     17004     17007     17008
     17004     17007     17009     17004     17007     17010     17005     17004     17006
     17005     17004     17007     17006     17004     17007     17007     17010     17011
     17007     17010     17012     17007     17010     17013     17008     17007     17009
     17008     17007     17010     17009     17007     17010     17010     17013     17014
     17010     17013     17015     17010     17013     17016     17011     17010     17012
     17011     17010     17013     17012     17010     17013     17013     17016     17017
     17013     17016     17018     17013     17016     17019     17014     17013     17015
     17014     17013     17016     17015     17013     17016     17016     17019     17020
     17016     17019     17021     17016     17019     17022     17017     17016     17018
     17017     17016     17019     17018     17016     17019     17019     17022     17023
     17019     17022     17024     17019     17022     17025     17020     17019     17021
     17020     17019     17022     17021     17019     17022     17022     17025     17026
     17022     17025     17027     17022     17025     17028     17023     17022     17024
     17023     17022     17025     17024     17022     17025     17025     17028     17029
     17025     17028     17030     17025     17028     17031     17026     17025     17027
     17026     17025     17028     17027     17025     17028     17028     17031     17032
     17028     17031     17033     17028     17031     17034     17029     17028     17030
     17029     17028     17031     17030     17028     17031     17031     17034     17035
     17031     17034     17036     17031     17034     17037     17032     17031     17033
     17032     17031     17034     17033     17031     17034     17034     17037     17038
     17034     17037     17039     17034     17037     17040     17035     17034     17036
     17035     17034     17037     17036     17034     17037     17037     17040     17041
     17037     17040     17042     17037     17040     17043     17038     17037     17039
     17038     17037     17040     17039     17037     17040     17040     17043     17044
     17040     17043     17045     17040     17043     17046     17041     17040     17042
     17041     17040     17043     17042     17040     17043     17043     17046     17047
     17043     17046     17048     17043     17046     17049     17044     17043     17045
     17044     17043     17046     17045     17043     17046     17047     17046     17048
     17047     17046     17049     17048     17046     17049     17050     17054     17055
     17050     17054     17056     17050     17054     17057     17051     17050     17052
     17051     17050     17053     17051     17050     17054     17052     17050     17053
     17052     17050     17054     17053     17050     17054     17054     17057     17058
     17054     17057     17059     17054     17057     17063     17055     17054     17056
     17055     17054     17057     17056     17054     17057     17057     17063     17060
     17058     17057     17059     17058     17057     17063     17059     17057     17063
     17060     17064     17065     17061     17060     17062     17061     17060     17063
     17061     17060     17064     17062     17060     17063     17062     17060     17064
     17063     17060     17064     17064     17065     17066     17064     17065     17067
     17064     17065     17068     17065     17068     17069     17065     17068     17070
     17065     17068     17076     17066     17065     17067     17066     17065     17068
     17067     17065     17068     17068     17070     17071     17068     17076     17077
     17068     17076     17078     17068     17076     17079     17069     17068     17070
     17069     17068     17076     17070     17068     17076     17070     17071     17072
     17070     17071     17073     17071     17073     17074     17071     17073     17075
     17071     17073     17085     17072     17071     17073     17073     17085     17086
     17073     17085     17087     17073     17085     17088     17074     17073     17075
     17074     17073     17085     17075     17073     17085     17076     17079     17080
     17077     17076     17078     17077     17076     17079     17078     17076     17079
     17079     17080     17081     17079     17080     17082     17080     17082     17083
     17080     17082     17084     17080     17082     17132     17081     17080     17082
     17082     17132     17133     17082     17132     17134     17082     17132     17135
     17083     17082     17084     17083     17082     17132     17084     17082     17132
     17085     17088     17089     17085     17088     17090     17085     17088     17091
     17086     17085     17087     17086     17085     17088     17087     17085     17088
     17088     17091     17092     17088     17091     17093     17089     17088     17090
     17089     17088     17091     17090     17088     17091     17091     17093     17094
     17091     17093     17095     17092     17091     17093     17093     17095     17096
     17093     17095     17097     17093     17095     17098     17094     17093     17095
     17095     17098     17099     17095     17098     17100     17096     17095     17097
     17096     17095     17098     17097     17095     17098     17098     17100     17101
     17098     17100     17102     17099     17098     17100     17100     17102     17103
     17100     17102     17104     17100     17102     17105     17101     17100     17102
     17102     17105     17106     17102     17105     17107     17103     17102     17104
     17103     17102     17105     17104     17102     17105     17105     17107     17108
     17105     17107     17109     17106     17105     17107     17107     17109     17110
     17107     17109     17111     17107     17109     17112     17108     17107     17109
     17109     17112     17113     17109     17112     17114     17110     17109     17111
     17110     17109     17112     17111     17109     17112     17112     17114     17115
     17112     17114     17116     17113     17112     17114     17114     17116     17117
     17114     17116     17118     17114     17116     17119     17115     17114     17116
     17116     17119     17120     17116     17119     17121     17116     17119     17122
     17117     17116     17118     17117     17116     17119     17118     17116     17119
     17119     17122     17123     17119     17122     17124     17119     17122     17125
     17120     17119     17121     17120     17119     17122     17121     17119     17122
     17122     17125     17126     17122     17125     17127     17122     17125     17128
     17123     17122     17124     17123     17122     17125     17124     17122     17125
     17125     17128     17129     17125     17128     17130     17125     17128     17131
     17126     17125     17127     17126     17125     17128     17127     17125     17128
     17129     17128     17130     17129     17128     17131     17130     17128     17131
     17132     17135     17136     17132     17135     17137     17132     17135     17138
     17133     17132     17134     17133     17132     17135     17134     17132     17135
     17135     17138     17139     17135     17138     17140     17135     17138     17141
     17136     17135     17137     17136     17135     17138     17137     17135     17138
     17138     17141     17142     17138     17141     17143     17138     17141     17144
     17139     17138     17140     17139     17138     17141     17140     17138     17141
     17141     17144     17145     17141     17144     17146     17141     17144     17147
     17142     17141     17143     17142     17141     17144     17143     17141     17144
     17144     17147     17148     17144     17147     17149     17144     17147     17150
     17145     17144     17146     17145     17144     17147     17146     17144     17147
     17147     17150     17151     17147     17150     17152     17147     17150     17153
     17148     17147     17149     17148     17147     17150     17149     17147     17150
     17150     17153     17154     17150     17153     17155     17150     17153     17156
     17151     17150     17152     17151     17150     17153     17152     17150     17153
     17153     17156     17157     17153     17156     17158     17153     17156     17159
     17154     17153     17155     17154     17153     17156     17155     17153     17156
     17156     17159     17160     17156     17159     17161     17156     17159     17162
     17157     17156     17158     17157     17156     17159     17158     17156     17159
     17159     17162     17163     17159     17162     17164     17159     17162     17165
     17160     17159     17161     17160     17159     17162     17161     17159     17162
     17162     17165     17166     17162     17165     17167     17162     17165     17168
     17163     17162     17164     17163     17162     17165     17164     17162     17165
     17165     17168     17169     17165     17168     17170     17165     17168     17171
     17166     17165     17167     17166     17165     17168     17167     17165     17168
     17168     17171     17172     17168     17171     17173     17168     17171     17174
     17169     17168     17170     17169     17168     17171     17170     17168     17171
     17171     17174     17175     17171     17174     17176     17171     17174     17177
     17172     17171     17173     17172     17171     17174     17173     17171     17174
     17174     17177     17178     17174     17177     17179     17174     17177     17180
     17175     17174     17176     17175     17174     17177     17176     17174     17177
     17178     17177     17179     17178     17177     17180     17179     17177     17180
     17181     17185     17186     17181     17185     17187     17181     17185     17188
     17182     17181     17183     17182     17181     17184     17182     17181     17185
     17183     17181     17184     17183     17181     17185     17184     17181     17185
     17185     17188     17189     17185     17188     17190     17185     17188     17194
     17186     17185     17187     17186     17185     17188     17187     17185     17188
     17188     17194     17191     17189     17188     17190     17189     17188     17194
     17190     17188     17194     17191     17195     17196     17192     17191     17193
     17192     17191     17194     17192     17191     17195     17193     17191     17194
     17193     17191     17195     17194     17191     17195     17195     17196     17197
     17195     17196     17198     17195     17196     17199     17196     17199     17200
     17196     17199     17201     17196     17199     17207     17197     17196     17198
     17197     17196     17199     17198     17196     17199     17199     17201     17202
     17199     17207     17208     17199     17207     17209     17199     17207     17210
     17200     17199     17201     17200     17199     17207     17201     17199     17207
     17201     17202     17203     17201     17202     17204     17202     17204     17205
     17202     17204     17206     17202     17204     17216     17203     17202     17204
     17204     17216     17217     17204     17216     17218     17204     17216     17219
     17205     17204     17206     17205     17204     17216     17206     17204     17216
     17207     17210     17211     17208     17207     17209     17208     17207     17210
     17209     17207     17210     17210     17211     17212     17210     17211     17213
     17211     17213     17214     17211     17213     17215     17211     17213     17263
     17212     17211     17213     17213     17263     17264     17213     17263     17265
     17213     17263     17266     17214     17213     17215     17214     17213     17263
     17215     17213     17263     17216     17219     17220     17216     17219     17221
     17216     17219     17222     17217     17216     17218     17217     17216     17219
     17218     17216     17219     17219     17222     17223     17219     17222     17224
     17219     17222     17225     17220     17219     17221     17220     17219     17222
     17221     17219     17222     17222     17225     17226     17222     17225     17227
     17222     17225     17228     17223     17222     17224     17223     17222     17225
     17224     17222     17225     17225     17228     17229     17225     17228     17230
     17225     17228     17231     17226     17225     17227     17226     17225     17228
     17227     17225     17228     17228     17231     17232     17228     17231     17233
     17228     17231     17234     17229     17228     17230     17229     17228     17231
     17230     17228     17231     17231     17234     17235     17231     17234     17236
     17232     17231     17233     17232     17231     17234     17233     17231     17234
     17234     17236     17237     17234     17236     17238     17235     17234     17236
     17236     17238     17239     17236     17238     17240     17236     17238     17241
     17237     17236     17238     17238     17241     17242     17238     17241     17243
     17238     17241     17244     17239     17238     17240     17239     17238     17241
     17240     17238     17241     17241     17244     17245     17241     17244     17246
     17241     17244     17247     17242     17241     17243     17242     17241     17244
     17243     17241     17244     17244     17247     17248     17244     17247     17249
     17244     17247     17250     17245     17244     17246     17245     17244     17247
     17246     17244     17247     17247     17250     17251     17247     17250     17252
     17247     17250     17253     17248     17247     17249     17248     17247     17250
     17249     17247     17250     17250     17253     17254     17250     17253     17255
     17250     17253     17256     17251     17250     17252     17251     17250     17253
     17252     17250     17253     17253     17256     17257     17253     17256     17258
     17253     17256     17259     17254     17253     17255     17254     17253     17256
     17255     17253     17256     17256     17259     17260     17256     17259     17261
     17256     17259     17262     17257     17256     17258     17257     17256     17259
     17258     17256     17259     17260     17259     17261     17260     17259     17262
     17261     17259     17262     17263     17266     17267     17263     17266     17268
     17263     17266     17269     17264     17263     17265     17264     17263     17266
     17265     17263     17266     17266     17269     17270     17266     17269     17271
     17266     17269     17272     17267     17266     17268     17267     17266     17269
     17268     17266     17269     17269     17272     17273     17269     17272     17274
     17269     17272     17275     17270     17269     17271     17270     17269     17272
     17271     17269     17272     17272     17275     17276     17272     17275     17277
     17272     17275     17278     17273     17272     17274     17273     17272     17275
     17274     17272     17275     17275     17278     17279     17275     17278     17280
     17275     17278     17281     17276     17275     17277     17276     17275     17278
     17277     17275     17278     17278     17281     17282     17278     17281     17283
     17278     17281     17284     17279     17278     17280     17279     17278     17281
     17280     17278     17281     17281     17284     17285     17281     17284     17286
     17281     17284     17287     17282     17281     17283     17282     17281     17284
     17283     17281     17284     17284     17287     17288     17284     17287     17289
     17284     17287     17290     17285     17284     17286     17285     17284     17287
     17286     17284     17287     17287     17290     17291     17287     17290     17292
     17287     17290     17293     17288     17287     17289     17288     17287     17290
     17289     17287     17290     17290     17293     17294     17290     17293     17295
     17290     17293     17296     17291     17290     17292     17291     17290     17293
     17292     17290     17293     17293     17296     17297     17293     17296     17298
     17293     17296     17299     17294     17293     17295     17294     17293     17296
     17295     17293     17296     17296     17299     17300     17296     17299     17301
     17296     17299     17302     17297     17296     17298     17297     17296     17299
     17298     17296     17299     17299     17302     17303     17299     17302     17304
     17299     17302     17305     17300     17299     17301     17300     17299     17302
     17301     17299     17302     17302     17305     17306     17302     17305     17307
     17302     17305     17308     17303     17302     17304     17303     17302     17305
     17304     17302     17305     17305     17308     17309     17305     17308     17310
     17305     17308     17311     17306     17305     17307     17306     17305     17308
     17307     17305     17308     17309     17308     17310     17309     17308     17311
     17310     17308     17311     17312     17314     17315     17312     17316     17317
     17312     17316     17318     17312     17316     17320     17312     17332     17328
     17312     17332     17333     17312     17332     17337     17313     17312     17314
     17313     17312     17316     17313     17312     17332     17314     17312     17316
     17314     17312     17332     17316     17312     17332     17316     17318     17319
     17316     17320     17321     17316     17320     17322     17316     17320     17324
     17317     17316     17318     17317     17316     17320     17318     17316     17320
     17320     17322     17323     17320     17324     17325     17320     17324     17326
     17320     17324     17328     17321     17320     17322     17321     17320     17324
     17322     17320     17324     17324     17326     17327     17324     17328     17329
     17324     17328     17330     17324     17328     17332     17325     17324     17326
     17325     17324     17328     17326     17324     17328     17328     17330     17331
     17328     17332     17333     17328     17332     17337     17329     17328     17330
     17329     17328     17332     17330     17328     17332     17332     17337     17334
     17333     17332     17337     17334     17338     17339     17335     17334     17336
     17335     17334     17337     17335     17334     17338     17336     17334     17337
     17336     17334     17338     17337     17334     17338     17338     17339     17340
     17338     17339     17341     17338     17339     17342     17339     17342     17343
     17339     17342     17344     17339     17342     17350     17340     17339     17341
     17340     17339     17342     17341     17339     17342     17342     17344     17345
     17342     17350     17351     17342     17350     17352     17342     17350     17353
     17343     17342     17344     17343     17342     17350     17344     17342     17350
     17344     17345     17346     17344     17345     17347     17345     17347     17348
     17345     17347     17349     17345     17347     17359     17346     17345     17347
     17347     17359     17360     17347     17359     17361     17347     17359     17362
     17348     17347     17349     17348     17347     17359     17349     17347     17359
     17350     17353     17354     17351     17350     17352     17351     17350     17353
     17352     17350     17353     17353     17354     17355     17353     17354     17356
     17354     17356     17357     17354     17356     17358     17354     17356     17406
     17355     17354     17356     17356     17406     17407     17356     17406     17408
     17356     17406     17409     17357     17356     17358     17357     17356     17406
     17358     17356     17406     17359     17362     17363     17359     17362     17364
     17359     17362     17365     17360     17359     17361     17360     17359     17362
     17361     17359     17362     17362     17365     17366     17362     17365     17367
     17363     17362     17364     17363     17362     17365     17364     17362     17365
     17365     17367     17368     17365     17367     17369     17366     17365     17367
     17367     17369     17370     17367     17369     17371     17367     17369     17372
     17368     17367     17369     17369     17372     17373     17369     17372     17374
     17370     17369     17371     17370     17369     17372     17371     17369     17372
     17372     17374     17375     17372     17374     17376     17373     17372     17374
     17374     17376     17377     17374     17376     17378     17374     17376     17379
     17375     17374     17376     17376     17379     17380     17376     17379     17381
     17377     17376     17378     17377     17376     17379     17378     17376     17379
     17379     17381     17382     17379     17381     17383     17380     17379     17381
     17381     17383     17384     17381     17383     17385     17381     17383     17386
     17382     17381     17383     17383     17386     17387     17383     17386     17388
     17384     17383     17385     17384     17383     17386     17385     17383     17386
     17386     17388     17389     17386     17388     17390     17387     17386     17388
     17388     17390     17391     17388     17390     17392     17388     17390     17393
     17389     17388     17390     17390     17393     17394     17390     17393     17395
     17390     17393     17396     17391     17390     17392     17391     17390     17393
     17392     17390     17393     17393     17396     17397     17393     17396     17398
     17393     17396     17399     17394     17393     17395     17394     17393     17396
     17395     17393     17396     17396     17399     17400     17396     17399     17401
     17396     17399     17402     17397     17396     17398     17397     17396     17399
     17398     17396     17399     17399     17402     17403     17399     17402     17404
     17399     17402     17405     17400     17399     17401     17400     17399     17402
     17401     17399     17402     17403     17402     17404     17403     17402     17405
     17404     17402     17405     17406     17409     17410     17406     17409     17411
     17406     17409     17412     17407     17406     17408     17407     17406     17409
     17408     17406     17409     17409     17412     17413     17409     17412     17414
     17409     17412     17415     17410     17409     17411     17410     17409     17412
     17411     17409     17412     17412     17415     17416     17412     17415     17417
     17412     17415     17418     17413     17412     17414     17413     17412     17415
     17414     17412     17415     17415     17418     17419     17415     17418     17420
     17415     17418     17421     17416     17415     17417     17416     17415     17418
     17417     17415     17418     17418     17421     17422     17418     17421     17423
     17418     17421     17424     17419     17418     17420     17419     17418     17421
     17420     17418     17421     17421     17424     17425     17421     17424     17426
     17421     17424     17427     17422     17421     17423     17422     17421     17424
     17423     17421     17424     17424     17427     17428     17424     17427     17429
     17424     17427     17430     17425     17424     17426     17425     17424     17427
     17426     17424     17427     17427     17430     17431     17427     17430     17432
     17427     17430     17433     17428     17427     17429     17428     17427     17430
     17429     17427     17430     17430     17433     17434     17430     17433     17435
     17430     17433     17436     17431     17430     17432     17431     17430     17433
     17432     17430     17433     17433     17436     17437     17433     17436     17438
     17433     17436     17439     17434     17433     17435     17434     17433     17436
     17435     17433     17436     17436     17439     17440     17436     17439     17441
     17436     17439     17442     17437     17436     17438     17437     17436     17439
     17438     17436     17439     17439     17442     17443     17439     17442     17444
     17439     17442     17445     17440     17439     17441     17440     17439     17442
     17441     17439     17442     17442     17445     17446     17442     17445     17447
     17442     17445     17448     17443     17442     17444     17443     17442     17445
     17444     17442     17445     17445     17448     17449     17445     17448     17450
     17445     17448     17451     17446     17445     17447     17446     17445     17448
     17447     17445     17448     17448     17451     17452     17448     17451     17453
     17448     17451     17454     17449     17448     17450     17449     17448     17451
     17450     17448     17451     17452     17451     17453     17452     17451     17454
     17453     17451     17454     17455     17456     17457     17455     17456     17458
     17455     17456     17459     17455     17460     17461     17455     17460     17462
     17455     17460     17463     17455     17464     17465     17455     17464     17466
     17455     17464     17467     17455     17468     17469     17455     17468     17470
     17455     17468     17471     17456     17455     17460     17456     17455     17464
     17456     17455     17468     17457     17456     17458     17457     17456     17459
     17458     17456     17459     17460     17455     17464     17460     17455     17468
     17461     17460     17462     17461     17460     17463     17462     17460     17463
     17464     17455     17468     17465     17464     17466     17465     17464     17467
     17466     17464     17467     17468     17471     17472     17468     17471     17473
     17468     17471     17478     17469     17468     17470     17469     17468     17471
     17470     17468     17471     17471     17478     17474     17472     17471     17473
     17472     17471     17478     17473     17471     17478     17474     17477     17479
     17475     17474     17476     17475     17474     17477     17475     17474     17478
     17476     17474     17477     17476     17474     17478     17477     17474     17478
     17477     17479     17480     17477     17479     17481     17477     17479     17484
     17479     17484     17482     17479     17484     17485     17479     17484     17486
     17480     17479     17481     17480     17479     17484     17481     17479     17484
     17482     17484     17485     17482     17484     17486     17482     17534     17535
     17482     17534     17536     17483     17482     17484     17483     17482     17534
     17484     17482     17534     17484     17486     17487     17484     17486     17488
     17484     17486     17490     17485     17484     17486     17486     17488     17489
     17486     17490     17491     17486     17490     17492     17487     17486     17488
     17487     17486     17490     17488     17486     17490     17490     17492     17493
     17490     17492     17494     17491     17490     17492     17492     17494     17495
     17492     17494     17496     17492     17494     17497     17493     17492     17494
     17494     17497     17498     17494     17497     17499     17494     17497     17500
     17495     17494     17496     17495     17494     17497     17496     17494     17497
     17497     17500     17501     17497     17500     17502     17497     17500     17503
     17498     17497     17499     17498     17497     17500     17499     17497     17500
     17500     17503     17504     17500     17503     17505     17500     17503     17506
     17501     17500     17502     17501     17500     17503     17502     17500     17503
     17503     17506     17507     17503     17506     17508     17503     17506     17509
     17504     17503     17505     17504     17503     17506     17505     17503     17506
     17506     17509     17510     17506     17509     17511     17506     17509     17512
     17507     17506     17508     17507     17506     17509     17508     17506     17509
     17509     17512     17513     17509     17512     17514     17509     17512     17515
     17510     17509     17511     17510     17509     17512     17511     17509     17512
     17512     17515     17516     17512     17515     17517     17512     17515     17518
     17513     17512     17514     17513     17512     17515     17514     17512     17515
     17515     17518     17519     17515     17518     17520     17515     17518     17521
     17516     17515     17517     17516     17515     17518     17517     17515     17518
     17518     17521     17522     17518     17521     17523     17518     17521     17524
     17519     17518     17520     17519     17518     17521     17520     17518     17521
     17521     17524     17525     17521     17524     17526     17521     17524     17527
     17522     17521     17523     17522     17521     17524     17523     17521     17524
     17524     17527     17528     17524     17527     17529     17524     17527     17530
     17525     17524     17526     17525     17524     17527     17526     17524     17527
     17527     17530     17531     17527     17530     17532     17527     17530     17533
     17528     17527     17529     17528     17527     17530     17529     17527     17530
     17531     17530     17532     17531     17530     17533     17532     17530     17533
     17534     17536     17537     17534     17536     17538     17534     17536     17539
     17535     17534     17536     17536     17539     17540     17536     17539     17541
     17536     17539     17542     17537     17536     17538     17537     17536     17539
     17538     17536     17539     17539     17542     17543     17539     17542     17544
     17539     17542     17545     17540     17539     17541     17540     17539     17542
     17541     17539     17542     17542     17545     17546     17542     17545     17547
     17542     17545     17548     17543     17542     17544     17543     17542     17545
     17544     17542     17545     17545     17548     17549     17545     17548     17550
     17545     17548     17551     17546     17545     17547     17546     17545     17548
     17547     17545     17548     17548     17551     17552     17548     17551     17553
     17548     17551     17554     17549     17548     17550     17549     17548     17551
     17550     17548     17551     17551     17554     17555     17551     17554     17556
     17551     17554     17557     17552     17551     17553     17552     17551     17554
     17553     17551     17554     17554     17557     17558     17554     17557     17559
     17555     17554     17556     17555     17554     17557     17556     17554     17557
     17557     17559     17560     17557     17559     17561     17558     17557     17559
     17559     17561     17562     17559     17561     17563     17559     17561     17564
     17560     17559     17561     17561     17564     17565     17561     17564     17566
     17561     17564     17567     17562     17561     17563     17562     17561     17564
     17563     17561     17564     17564     17567     17568     17564     17567     17569
     17564     17567     17570     17565     17564     17566     17565     17564     17567
     17566     17564     17567     17567     17570     17571     17567     17570     17572
     17567     17570     17573     17568     17567     17569     17568     17567     17570
     17569     17567     17570     17570     17573     17574     17570     17573     17575
     17570     17573     17576     17571     17570     17572     17571     17570     17573
     17572     17570     17573     17573     17576     17577     17573     17576     17578
     17573     17576     17579     17574     17573     17575     17574     17573     17576
     17575     17573     17576     17576     17579     17580     17576     17579     17581
     17576     17579     17582     17577     17576     17578     17577     17576     17579
     17578     17576     17579     17579     17582     17583     17579     17582     17584
     17579     17582     17585     17580     17579     17581     17580     17579     17582
     17581     17579     17582     17583     17582     17584     17583     17582     17585
     17584     17582     17585     17586     17588     17589     17586     17590     17591
     17586     17590     17592     17586     17590     17593     17586     17632     17629
     17586     17632     17633     17586     17632     17634     17587     17586     17588
     17587     17586     17590     17587     17586     17632     17588     17586     17590
     17588     17586     17632     17590     17586     17632     17590     17593     17594
     17590     17593     17624     17591     17590     17592     17591     17590     17593
     17592     17590     17593     17593     17594     17595     17593     17594     17596
     17593     17624     17622     17593     17624     17625     17593     17624     17629
     17594     17593     17624     17594     17596     17597     17594     17596     17598
     17594     17596     17599     17595     17594     17596     17596     17599     17600
     17596     17599     17601     17596     17599     17622     17597     17596     17598
     17597     17596     17599     17598     17596     17599     17599     17601     17602
     17599     17601     17603     17599     17601     17611     17599     17622     17619
     17599     17622     17623     17599     17622     17624     17600     17599     17601
     17600     17599     17622     17601     17599     17622     17601     17603     17604
     17601     17603     17605     17601     17603     17606     17601     17611     17609
     17601     17611     17612     17601     17611     17616     17602     17601     17603
     17602     17601     17611     17603     17601     17611     17603     17606     17607
     17603     17606     17608     17603     17606     17609     17604     17603     17605
     17604     17603     17606     17605     17603     17606     17606     17609     17610
     17606     17609     17611     17606     17609     17635     17607     17606     17608
     17607     17606     17609     17608     17606     17609     17609     17611     17612
     17609     17611     17616     17609     17635     17636     17609     17635     17637
     17609     17635     17641     17610     17609     17611     17610     17609     17635
     17611     17609     17635     17611     17612     17613     17611     17612     17614
     17611     17612     17615     17611     17616     17617     17611     17616     17618
     17611     17616     17619     17612     17611     17616     17613     17612     17614
     17613     17612     17615     17614     17612     17615     17616     17619     17620
     17616     17619     17621     17616     17619     17622     17617     17616     17618
     17617     17616     17619     17618     17616     17619     17619     17622     17623
     17619     17622     17624     17620     17619     17621     17620     17619     17622
     17621     17619     17622     17622     17624     17625     17622     17624     17629
     17623     17622     17624     17624     17625     17626     17624     17625     17627
     17624     17625     17628     17624     17629     17630     17624     17629     17631
     17624     17629     17632     17625     17624     17629     17626     17625     17627
     17626     17625     17628     17627     17625     17628     17629     17632     17633
     17629     17632     17634     17630     17629     17631     17630     17629     17632
     17631     17629     17632     17633     17632     17634     17635     17637     17638
     17635     17637     17639     17635     17637     17640     17635     17641     17642
     17635     17641     17643     17635     17641     17644     17636     17635     17637
     17636     17635     17641     17637     17635     17641     17638     17637     17639
     17638     17637     17640     17639     17637     17640     17641     17644     17645
     17641     17644     17646     17641     17644     17647     17642     17641     17643
     17642     17641     17644     17643     17641     17644     17644     17647     17648
     17644     17647     17649     17644     17647     17650     17645     17644     17646
     17645     17644     17647     17646     17644     17647     17647     17650     17651
     17647     17650     17652     17647     17650     17656     17648     17647     17649
     17648     17647     17650     17649     17647     17650     17650     17652     17653
     17650     17652     17654     17650     17652     17655     17650     17656     17657
     17650     17656     17658     17650     17656     17659     17651     17650     17652
     17651     17650     17656     17652     17650     17656     17653     17652     17654
     17653     17652     17655     17654     17652     17655     17657     17656     17658
     17657     17656     17659     17658     17656     17659     17660     17662     17663
     17660     17664     17665     17660     17664     17666     17660     17664     17667
     17660     17706     17703     17660     17706     17707     17660     17706     17708
     17661     17660     17662     17661     17660     17664     17661     17660     17706
     17662     17660     17664     17662     17660     17706     17664     17660     17706
     17664     17667     17668     17664     17667     17698     17665     17664     17666
     17665     17664     17667     17666     17664     17667     17667     17668     17669
     17667     17668     17670     17667     17698     17696     17667     17698     17699
     17667     17698     17703     17668     17667     17698     17668     17670     17671
     17668     17670     17672     17668     17670     17673     17669     17668     17670
     17670     17673     17674     17670     17673     17675     17670     17673     17696
     17671     17670     17672     17671     17670     17673     17672     17670     17673
     17673     17675     17676     17673     17675     17677     17673     17675     17685
     17673     17696     17693     17673     17696     17697     17673     17696     17698
     17674     17673     17675     17674     17673     17696     17675     17673     17696
     17675     17677     17678     17675     17677     17679     17675     17677     17680
     17675     17685     17683     17675     17685     17686     17675     17685     17690
     17676     17675     17677     17676     17675     17685     17677     17675     17685
     17677     17680     17681     17677     17680     17682     17677     17680     17683
     17678     17677     17679     17678     17677     17680     17679     17677     17680
     17680     17683     17684     17680     17683     17685     17680     17683     17709
     17681     17680     17682     17681     17680     17683     17682     17680     17683
     17683     17685     17686     17683     17685     17690     17683     17709     17710
     17683     17709     17711     17683     17709     17715     17684     17683     17685
     17684     17683     17709     17685     17683     17709     17685     17686     17687
     17685     17686     17688     17685     17686     17689     17685     17690     17691
     17685     17690     17692     17685     17690     17693     17686     17685     17690
     17687     17686     17688     17687     17686     17689     17688     17686     17689
     17690     17693     17694     17690     17693     17695     17690     17693     17696
     17691     17690     17692     17691     17690     17693     17692     17690     17693
     17693     17696     17697     17693     17696     17698     17694     17693     17695
     17694     17693     17696     17695     17693     17696     17696     17698     17699
     17696     17698     17703     17697     17696     17698     17698     17699     17700
     17698     17699     17701     17698     17699     17702     17698     17703     17704
     17698     17703     17705     17698     17703     17706     17699     17698     17703
     17700     17699     17701     17700     17699     17702     17701     17699     17702
     17703     17706     17707     17703     17706     17708     17704     17703     17705
     17704     17703     17706     17705     17703     17706     17707     17706     17708
     17709     17711     17712     17709     17711     17713     17709     17711     17714
     17709     17715     17716     17709     17715     17717     17709     17715     17718
     17710     17709     17711     17710     17709     17715     17711     17709     17715
     17712     17711     17713     17712     17711     17714     17713     17711     17714
     17715     17718     17719     17715     17718     17720     17715     17718     17721
     17716     17715     17717     17716     17715     17718     17717     17715     17718
     17718     17721     17722     17718     17721     17723     17718     17721     17724
     17719     17718     17720     17719     17718     17721     17720     17718     17721
     17721     17724     17725     17721     17724     17726     17721     17724     17730
     17722     17721     17723     17722     17721     17724     17723     17721     17724
     17724     17726     17727     17724     17726     17728     17724     17726     17729
     17724     17730     17731     17724     17730     17732     17724     17730     17733
     17725     17724     17726     17725     17724     17730     17726     17724     17730
     17727     17726     17728     17727     17726     17729     17728     17726     17729
     17731     17730     17732     17731     17730     17733     17732     17730     17733
     17734     17736     17737     17734     17738     17739     17734     17738     17740
     17734     17738     17741     17734     17780     17777     17734     17780     17781
     17734     17780     17782     17735     17734     17736     17735     17734     17738
     17735     17734     17780     17736     17734     17738     17736     17734     17780
     17738     17734     17780     17738     17741     17742     17738     17741     17772
     17739     17738     17740     17739     17738     17741     17740     17738     17741
     17741     17742     17743     17741     17742     17744     17741     17772     17770
     17741     17772     17773     17741     17772     17777     17742     17741     17772
     17742     17744     17745     17742     17744     17746     17742     17744     17747
     17743     17742     17744     17744     17747     17748     17744     17747     17749
     17744     17747     17770     17745     17744     17746     17745     17744     17747
     17746     17744     17747     17747     17749     17750     17747     17749     17751
     17747     17749     17759     17747     17770     17767     17747     17770     17771
     17747     17770     17772     17748     17747     17749     17748     17747     17770
     17749     17747     17770     17749     17751     17752     17749     17751     17753
     17749     17751     17754     17749     17759     17757     17749     17759     17760
     17749     17759     17764     17750     17749     17751     17750     17749     17759
     17751     17749     17759     17751     17754     17755     17751     17754     17756
     17751     17754     17757     17752     17751     17753     17752     17751     17754
     17753     17751     17754     17754     17757     17758     17754     17757     17759
     17754     17757     17783     17755     17754     17756     17755     17754     17757
     17756     17754     17757     17757     17759     17760     17757     17759     17764
     17757     17783     17784     17757     17783     17785     17757     17783     17789
     17758     17757     17759     17758     17757     17783     17759     17757     17783
     17759     17760     17761     17759     17760     17762     17759     17760     17763
     17759     17764     17765     17759     17764     17766     17759     17764     17767
     17760     17759     17764     17761     17760     17762     17761     17760     17763
     17762     17760     17763     17764     17767     17768     17764     17767     17769
     17764     17767     17770     17765     17764     17766     17765     17764     17767
     17766     17764     17767     17767     17770     17771     17767     17770     17772
     17768     17767     17769     17768     17767     17770     17769     17767     17770
     17770     17772     17773     17770     17772     17777     17771     17770     17772
     17772     17773     17774     17772     17773     17775     17772     17773     17776
     17772     17777     17778     17772     17777     17779     17772     17777     17780
     17773     17772     17777     17774     17773     17775     17774     17773     17776
     17775     17773     17776     17777     17780     17781     17777     17780     17782
     17778     17777     17779     17778     17777     17780     17779     17777     17780
     17781     17780     17782     17783     17785     17786     17783     17785     17787
     17783     17785     17788     17783     17789     17790     17783     17789     17791
     17783     17789     17792     17784     17783     17785     17784     17783     17789
     17785     17783     17789     17786     17785     17787     17786     17785     17788
     17787     17785     17788     17789     17792     17793     17789     17792     17794
     17789     17792     17795     17790     17789     17791     17790     17789     17792
     17791     17789     17792     17792     17795     17796     17792     17795     17797
     17792     17795     17798     17793     17792     17794     17793     17792     17795
     17794     17792     17795     17795     17798     17799     17795     17798     17800
     17795     17798     17804     17796     17795     17797     17796     17795     17798
     17797     17795     17798     17798     17800     17801     17798     17800     17802
     17798     17800     17803     17798     17804     17805     17798     17804     17806
     17798     17804     17807     17799     17798     17800     17799     17798     17804
     17800     17798     17804     17801     17800     17802     17801     17800     17803
     17802     17800     17803     17805     17804     17806     17805     17804     17807
     17806     17804     17807     17808     17810     17811     17808     17812     17813
     17808     17812     17814     17808     17812     17815     17808     17854     17851
     17808     17854     17855     17808     17854     17856     17809     17808     17810
     17809     17808     17812     17809     17808     17854     17810     17808     17812
     17810     17808     17854     17812     17808     17854     17812     17815     17816
     17812     17815     17846     17813     17812     17814     17813     17812     17815
     17814     17812     17815     17815     17816     17817     17815     17816     17818
     17815     17846     17844     17815     17846     17847     17815     17846     17851
     17816     17815     17846     17816     17818     17819     17816     17818     17820
     17816     17818     17821     17817     17816     17818     17818     17821     17822
     17818     17821     17823     17818     17821     17844     17819     17818     17820
     17819     17818     17821     17820     17818     17821     17821     17823     17824
     17821     17823     17825     17821     17823     17833     17821     17844     17841
     17821     17844     17845     17821     17844     17846     17822     17821     17823
     17822     17821     17844     17823     17821     17844     17823     17825     17826
     17823     17825     17827     17823     17825     17828     17823     17833     17831
     17823     17833     17834     17823     17833     17838     17824     17823     17825
     17824     17823     17833     17825     17823     17833     17825     17828     17829
     17825     17828     17830     17825     17828     17831     17826     17825     17827
     17826     17825     17828     17827     17825     17828     17828     17831     17832
     17828     17831     17833     17828     17831     17857     17829     17828     17830
     17829     17828     17831     17830     17828     17831     17831     17833     17834
     17831     17833     17838     17831     17857     17858     17831     17857     17859
     17831     17857     17863     17832     17831     17833     17832     17831     17857
     17833     17831     17857     17833     17834     17835     17833     17834     17836
     17833     17834     17837     17833     17838     17839     17833     17838     17840
     17833     17838     17841     17834     17833     17838     17835     17834     17836
     17835     17834     17837     17836     17834     17837     17838     17841     17842
     17838     17841     17843     17838     17841     17844     17839     17838     17840
     17839     17838     17841     17840     17838     17841     17841     17844     17845
     17841     17844     17846     17842     17841     17843     17842     17841     17844
     17843     17841     17844     17844     17846     17847     17844     17846     17851
     17845     17844     17846     17846     17847     17848     17846     17847     17849
     17846     17847     17850     17846     17851     17852     17846     17851     17853
     17846     17851     17854     17847     17846     17851     17848     17847     17849
     17848     17847     17850     17849     17847     17850     17851     17854     17855
     17851     17854     17856     17852     17851     17853     17852     17851     17854
     17853     17851     17854     17855     17854     17856     17857     17859     17860
     17857     17859     17861     17857     17859     17862     17857     17863     17864
     17857     17863     17865     17857     17863     17866     17858     17857     17859
     17858     17857     17863     17859     17857     17863     17860     17859     17861
     17860     17859     17862     17861     17859     17862     17863     17866     17867
     17863     17866     17868     17863     17866     17869     17864     17863     17865
     17864     17863     17866     17865     17863     17866     17866     17869     17870
     17866     17869     17871     17866     17869     17872     17867     17866     17868
     17867     17866     17869     17868     17866     17869     17869     17872     17873
     17869     17872     17874     17869     17872     17878     17870     17869     17871
     17870     17869     17872     17871     17869     17872     17872     17874     17875
     17872     17874     17876     17872     17874     17877     17872     17878     17879
     17872     17878     17880     17872     17878     17881     17873     17872     17874
     17873     17872     17878     17874     17872     17878     17875     17874     17876
     17875     17874     17877     17876     17874     17877     17879     17878     17880
     17879     17878     17881     17880     17878     17881     17882     17884     17885
     17882     17886     17887     17882     17886     17888     17882     17886     17889
     17882     17928     17925     17882     17928     17929     17882     17928     17930
     17883     17882     17884     17883     17882     17886     17883     17882     17928
     17884     17882     17886     17884     17882     17928     17886     17882     17928
     17886     17889     17890     17886     17889     17920     17887     17886     17888
     17887     17886     17889     17888     17886     17889     17889     17890     17891
     17889     17890     17892     17889     17920     17918     17889     17920     17921
     17889     17920     17925     17890     17889     17920     17890     17892     17893
     17890     17892     17894     17890     17892     17895     17891     17890     17892
     17892     17895     17896     17892     17895     17897     17892     17895     17918
     17893     17892     17894     17893     17892     17895     17894     17892     17895
     17895     17897     17898     17895     17897     17899     17895     17897     17907
     17895     17918     17915     17895     17918     17919     17895     17918     17920
     17896     17895     17897     17896     17895     17918     17897     17895     17918
     17897     17899     17900     17897     17899     17901     17897     17899     17902
     17897     17907     17905     17897     17907     17908     17897     17907     17912
     17898     17897     17899     17898     17897     17907     17899     17897     17907
     17899     17902     17903     17899     17902     17904     17899     17902     17905
     17900     17899     17901     17900     17899     17902     17901     17899     17902
     17902     17905     17906     17902     17905     17907     17902     17905     17931
     17903     17902     17904     17903     17902     17905     17904     17902     17905
     17905     17907     17908     17905     17907     17912     17905     17931     17932
     17905     17931     17933     17905     17931     17937     17906     17905     17907
     17906     17905     17931     17907     17905     17931     17907     17908     17909
     17907     17908     17910     17907     17908     17911     17907     17912     17913
     17907     17912     17914     17907     17912     17915     17908     17907     17912
     17909     17908     17910     17909     17908     17911     17910     17908     17911
     17912     17915     17916     17912     17915     17917     17912     17915     17918
     17913     17912     17914     17913     17912     17915     17914     17912     17915
     17915     17918     17919     17915     17918     17920     17916     17915     17917
     17916     17915     17918     17917     17915     17918     17918     17920     17921
     17918     17920     17925     17919     17918     17920     17920     17921     17922
     17920     17921     17923     17920     17921     17924     17920     17925     17926
     17920     17925     17927     17920     17925     17928     17921     17920     17925
     17922     17921     17923     17922     17921     17924     17923     17921     17924
     17925     17928     17929     17925     17928     17930     17926     17925     17927
     17926     17925     17928     17927     17925     17928     17929     17928     17930
     17931     17933     17934     17931     17933     17935     17931     17933     17936
     17931     17937     17938     17931     17937     17939     17931     17937     17940
     17932     17931     17933     17932     17931     17937     17933     17931     17937
     17934     17933     17935     17934     17933     17936     17935     17933     17936
     17937     17940     17941     17937     17940     17942     17937     17940     17943
     17938     17937     17939     17938     17937     17940     17939     17937     17940
     17940     17943     17944     17940     17943     17945     17940     17943     17946
     17941     17940     17942     17941     17940     17943     17942     17940     17943
     17943     17946     17947     17943     17946     17948     17943     17946     17952
     17944     17943     17945     17944     17943     17946     17945     17943     17946
     17946     17948     17949     17946     17948     17950     17946     17948     17951
     17946     17952     17953     17946     17952     17954     17946     17952     17955
     17947     17946     17948     17947     17946     17952     17948     17946     17952
     17949     17948     17950     17949     17948     17951     17950     17948     17951
     17953     17952     17954     17953     17952     17955     17954     17952     17955
     17956     17958     17959     17956     17960     17961     17956     17960     17962
     17956     17960     17963     17956     18002     17999     17956     18002     18003
     17956     18002     18004     17957     17956     17958     17957     17956     17960
     17957     17956     18002     17958     17956     17960     17958     17956     18002
     17960     17956     18002     17960     17963     17964     17960     17963     17994
     17961     17960     17962     17961     17960     17963     17962     17960     17963
     17963     17964     17965     17963     17964     17966     17963     17994     17992
     17963     17994     17995     17963     17994     17999     17964     17963     17994
     17964     17966     17967     17964     17966     17968     17964     17966     17969
     17965     17964     17966     17966     17969     17970     17966     17969     17971
     17966     17969     17992     17967     17966     17968     17967     17966     17969
     17968     17966     17969     17969     17971     17972     17969     17971     17973
     17969     17971     17981     17969     17992     17989     17969     17992     17993
     17969     17992     17994     17970     17969     17971     17970     17969     17992
     17971     17969     17992     17971     17973     17974     17971     17973     17975
     17971     17973     17976     17971     17981     17979     17971     17981     17982
     17971     17981     17986     17972     17971     17973     17972     17971     17981
     17973     17971     17981     17973     17976     17977     17973     17976     17978
     17973     17976     17979     17974     17973     17975     17974     17973     17976
     17975     17973     17976     17976     17979     17980     17976     17979     17981
     17976     17979     18005     17977     17976     17978     17977     17976     17979
     17978     17976     17979     17979     17981     17982     17979     17981     17986
     17979     18005     18006     17979     18005     18007     17979     18005     18011
     17980     17979     17981     17980     17979     18005     17981     17979     18005
     17981     17982     17983     17981     17982     17984     17981     17982     17985
     17981     17986     17987     17981     17986     17988     17981     17986     17989
     17982     17981     17986     17983     17982     17984     17983     17982     17985
     17984     17982     17985     17986     17989     17990     17986     17989     17991
     17986     17989     17992     17987     17986     17988     17987     17986     17989
     17988     17986     17989     17989     17992     17993     17989     17992     17994
     17990     17989     17991     17990     17989     17992     17991     17989     17992
     17992     17994     17995     17992     17994     17999     17993     17992     17994
     17994     17995     17996     17994     17995     17997     17994     17995     17998
     17994     17999     18000     17994     17999     18001     17994     17999     18002
     17995     17994     17999     17996     17995     17997     17996     17995     17998
     17997     17995     17998     17999     18002     18003     17999     18002     18004
     18000     17999     18001     18000     17999     18002     18001     17999     18002
     18003     18002     18004     18005     18007     18008     18005     18007     18009
     18005     18007     18010     18005     18011     18012     18005     18011     18013
     18005     18011     18014     18006     18005     18007     18006     18005     18011
     18007     18005     18011     18008     18007     18009     18008     18007     18010
     18009     18007     18010     18011     18014     18015     18011     18014     18016
     18011     18014     18017     18012     18011     18013     18012     18011     18014
     18013     18011     18014     18014     18017     18018     18014     18017     18019
     18014     18017     18020     18015     18014     18016     18015     18014     18017
     18016     18014     18017     18017     18020     18021     18017     18020     18022
     18017     18020     18026     18018     18017     18019     18018     18017     18020
     18019     18017     18020     18020     18022     18023     18020     18022     18024
     18020     18022     18025     18020     18026     18027     18020     18026     18028
     18020     18026     18029     18021     18020     18022     18021     18020     18026
     18022     18020     18026     18023     18022     18024     18023     18022     18025
     18024     18022     18025     18027     18026     18028     18027     18026     18029
     18028     18026     18029     18030     18031     18032     18030     18031     18033
     18030     18031     18034     18030     18035     18036     18030     18035     18037
     18030     18035     18038     18030     18039     18040     18030     18039     18041
     18030     18039     18042     18030     18043     18044     18030     18043     18045
     18030     18043     18046     18031     18030     18035     18031     18030     18039
     18031     18030     18043     18032     18031     18033     18032     18031     18034
     18033     18031     18034     18035     18030     18039     18035     18030     18043
     18036     18035     18037     18036     18035     18038     18037     18035     18038
     18039     18030     18043     18040     18039     18041     18040     18039     18042
     18041     18039     18042     18043     18046     18047     18043     18046     18048
     18043     18046     18053     18044     18043     18045     18044     18043     18046
     18045     18043     18046     18046     18053     18049     18047     18046     18048
     18047     18046     18053     18048     18046     18053     18049     18052     18054
     18050     18049     18051     18050     18049     18052     18050     18049     18053
     18051     18049     18052     18051     18049     18053     18052     18049     18053
     18052     18054     18055     18052     18054     18056     18052     18054     18059
     18054     18059     18057     18054     18059     18060     18054     18059     18061
     18055     18054     18056     18055     18054     18059     18056     18054     18059
     18057     18059     18060     18057     18059     18061     18057     18109     18110
     18057     18109     18111     18058     18057     18059     18058     18057     18109
     18059     18057     18109     18059     18061     18062     18059     18061     18063
     18059     18061     18065     18060     18059     18061     18061     18063     18064
     18061     18065     18066     18061     18065     18067     18062     18061     18063
     18062     18061     18065     18063     18061     18065     18065     18067     18068
     18065     18067     18069     18066     18065     18067     18067     18069     18070
     18067     18069     18071     18067     18069     18072     18068     18067     18069
     18069     18072     18073     18069     18072     18074     18069     18072     18075
     18070     18069     18071     18070     18069     18072     18071     18069     18072
     18072     18075     18076     18072     18075     18077     18072     18075     18078
     18073     18072     18074     18073     18072     18075     18074     18072     18075
     18075     18078     18079     18075     18078     18080     18075     18078     18081
     18076     18075     18077     18076     18075     18078     18077     18075     18078
     18078     18081     18082     18078     18081     18083     18078     18081     18084
     18079     18078     18080     18079     18078     18081     18080     18078     18081
     18081     18084     18085     18081     18084     18086     18081     18084     18087
     18082     18081     18083     18082     18081     18084     18083     18081     18084
     18084     18087     18088     18084     18087     18089     18084     18087     18090
     18085     18084     18086     18085     18084     18087     18086     18084     18087
     18087     18090     18091     18087     18090     18092     18087     18090     18093
     18088     18087     18089     18088     18087     18090     18089     18087     18090
     18090     18093     18094     18090     18093     18095     18090     18093     18096
     18091     18090     18092     18091     18090     18093     18092     18090     18093
     18093     18096     18097     18093     18096     18098     18093     18096     18099
     18094     18093     18095     18094     18093     18096     18095     18093     18096
     18096     18099     18100     18096     18099     18101     18096     18099     18102
     18097     18096     18098     18097     18096     18099     18098     18096     18099
     18099     18102     18103     18099     18102     18104     18099     18102     18105
     18100     18099     18101     18100     18099     18102     18101     18099     18102
     18102     18105     18106     18102     18105     18107     18102     18105     18108
     18103     18102     18104     18103     18102     18105     18104     18102     18105
     18106     18105     18107     18106     18105     18108     18107     18105     18108
     18109     18111     18112     18109     18111     18113     18109     18111     18114
     18110     18109     18111     18111     18114     18115     18111     18114     18116
     18111     18114     18117     18112     18111     18113     18112     18111     18114
     18113     18111     18114     18114     18117     18118     18114     18117     18119
     18114     18117     18120     18115     18114     18116     18115     18114     18117
     18116     18114     18117     18117     18120     18121     18117     18120     18122
     18117     18120     18123     18118     18117     18119     18118     18117     18120
     18119     18117     18120     18120     18123     18124     18120     18123     18125
     18120     18123     18126     18121     18120     18122     18121     18120     18123
     18122     18120     18123     18123     18126     18127     18123     18126     18128
     18123     18126     18129     18124     18123     18125     18124     18123     18126
     18125     18123     18126     18126     18129     18130     18126     18129     18131
     18126     18129     18132     18127     18126     18128     18127     18126     18129
     18128     18126     18129     18129     18132     18133     18129     18132     18134
     18130     18129     18131     18130     18129     18132     18131     18129     18132
     18132     18134     18135     18132     18134     18136     18133     18132     18134
     18134     18136     18137     18134     18136     18138     18134     18136     18139
     18135     18134     18136     18136     18139     18140     18136     18139     18141
     18136     18139     18142     18137     18136     18138     18137     18136     18139
     18138     18136     18139     18139     18142     18143     18139     18142     18144
     18139     18142     18145     18140     18139     18141     18140     18139     18142
     18141     18139     18142     18142     18145     18146     18142     18145     18147
     18142     18145     18148     18143     18142     18144     18143     18142     18145
     18144     18142     18145     18145     18148     18149     18145     18148     18150
     18145     18148     18151     18146     18145     18147     18146     18145     18148
     18147     18145     18148     18148     18151     18152     18148     18151     18153
     18148     18151     18154     18149     18148     18150     18149     18148     18151
     18150     18148     18151     18151     18154     18155     18151     18154     18156
     18151     18154     18157     18152     18151     18153     18152     18151     18154
     18153     18151     18154     18154     18157     18158     18154     18157     18159
     18154     18157     18160     18155     18154     18156     18155     18154     18157
     18156     18154     18157     18158     18157     18159     18158     18157     18160
     18159     18157     18160     18161     18162     18163     18161     18162     18164
     18161     18162     18177     18161     18165     18166     18161     18165     18167
     18161     18165     18168     18161     18169     18170     18161     18169     18171
     18161     18169     18172     18161     18173     18174     18161     18173     18175
     18161     18173     18176     18162     18161     18165     18162     18161     18169
     18162     18161     18173     18162     18177     18178     18162     18177     18179
     18162     18177     18183     18163     18162     18164     18163     18162     18177
     18164     18162     18177     18165     18161     18169     18165     18161     18173
     18166     18165     18167     18166     18165     18168     18167     18165     18168
     18169     18161     18173     18170     18169     18171     18170     18169     18172
     18171     18169     18172     18174     18173     18175     18174     18173     18176
     18175     18173     18176     18177     18183     18180     18178     18177     18179
     18178     18177     18183     18179     18177     18183     18180     18184     18185
     18181     18180     18182     18181     18180     18183     18181     18180     18184
     18182     18180     18183     18182     18180     18184     18183     18180     18184
     18184     18185     18186     18184     18185     18187     18184     18185     18188
     18185     18188     18189     18185     18188     18190     18185     18188     18196
     18186     18185     18187     18186     18185     18188     18187     18185     18188
     18188     18190     18191     18188     18196     18197     18188     18196     18198
     18188     18196     18199     18189     18188     18190     18189     18188     18196
     18190     18188     18196     18190     18191     18192     18190     18191     18193
     18191     18193     18194     18191     18193     18195     18191     18193     18205
     18192     18191     18193     18193     18205     18206     18193     18205     18207
     18193     18205     18208     18194     18193     18195     18194     18193     18205
     18195     18193     18205     18196     18199     18200     18197     18196     18198
     18197     18196     18199     18198     18196     18199     18199     18200     18201
     18199     18200     18202     18200     18202     18203     18200     18202     18204
     18200     18202     18252     18201     18200     18202     18202     18252     18253
     18202     18252     18254     18202     18252     18255     18203     18202     18204
     18203     18202     18252     18204     18202     18252     18205     18208     18209
     18205     18208     18210     18205     18208     18211     18206     18205     18207
     18206     18205     18208     18207     18205     18208     18208     18211     18212
     18208     18211     18213     18209     18208     18210     18209     18208     18211
     18210     18208     18211     18211     18213     18214     18211     18213     18215
     18212     18211     18213     18213     18215     18216     18213     18215     18217
     18213     18215     18218     18214     18213     18215     18215     18218     18219
     18215     18218     18220     18216     18215     18217     18216     18215     18218
     18217     18215     18218     18218     18220     18221     18218     18220     18222
     18219     18218     18220     18220     18222     18223     18220     18222     18224
     18220     18222     18225     18221     18220     18222     18222     18225     18226
     18222     18225     18227     18223     18222     18224     18223     18222     18225
     18224     18222     18225     18225     18227     18228     18225     18227     18229
     18226     18225     18227     18227     18229     18230     18227     18229     18231
     18227     18229     18232     18228     18227     18229     18229     18232     18233
     18229     18232     18234     18230     18229     18231     18230     18229     18232
     18231     18229     18232     18232     18234     18235     18232     18234     18236
     18233     18232     18234     18234     18236     18237     18234     18236     18238
     18234     18236     18239     18235     18234     18236     18236     18239     18240
     18236     18239     18241     18236     18239     18242     18237     18236     18238
     18237     18236     18239     18238     18236     18239     18239     18242     18243
     18239     18242     18244     18239     18242     18245     18240     18239     18241
     18240     18239     18242     18241     18239     18242     18242     18245     18246
     18242     18245     18247     18242     18245     18248     18243     18242     18244
     18243     18242     18245     18244     18242     18245     18245     18248     18249
     18245     18248     18250     18245     18248     18251     18246     18245     18247
     18246     18245     18248     18247     18245     18248     18249     18248     18250
     18249     18248     18251     18250     18248     18251     18252     18255     18256
     18252     18255     18257     18252     18255     18258     18253     18252     18254
     18253     18252     18255     18254     18252     18255     18255     18258     18259
     18255     18258     18260     18255     18258     18261     18256     18255     18257
     18256     18255     18258     18257     18255     18258     18258     18261     18262
     18258     18261     18263     18258     18261     18264     18259     18258     18260
     18259     18258     18261     18260     18258     18261     18261     18264     18265
     18261     18264     18266     18261     18264     18267     18262     18261     18263
     18262     18261     18264     18263     18261     18264     18264     18267     18268
     18264     18267     18269     18264     18267     18270     18265     18264     18266
     18265     18264     18267     18266     18264     18267     18267     18270     18271
     18267     18270     18272     18267     18270     18273     18268     18267     18269
     18268     18267     18270     18269     18267     18270     18270     18273     18274
     18270     18273     18275     18270     18273     18276     18271     18270     18272
     18271     18270     18273     18272     18270     18273     18273     18276     18277
     18273     18276     18278     18273     18276     18279     18274     18273     18275
     18274     18273     18276     18275     18273     18276     18276     18279     18280
     18276     18279     18281     18276     18279     18282     18277     18276     18278
     18277     18276     18279     18278     18276     18279     18279     18282     18283
     18279     18282     18284     18279     18282     18285     18280     18279     18281
     18280     18279     18282     18281     18279     18282     18282     18285     18286
     18282     18285     18287     18282     18285     18288     18283     18282     18284
     18283     18282     18285     18284     18282     18285     18285     18288     18289
     18285     18288     18290     18285     18288     18291     18286     18285     18287
     18286     18285     18288     18287     18285     18288     18288     18291     18292
     18288     18291     18293     18288     18291     18294     18289     18288     18290
     18289     18288     18291     18290     18288     18291     18291     18294     18295
     18291     18294     18296     18291     18294     18297     18292     18291     18293
     18292     18291     18294     18293     18291     18294     18294     18297     18298
     18294     18297     18299     18294     18297     18300     18295     18294     18296
     18295     18294     18297     18296     18294     18297     18298     18297     18299
     18298     18297     18300     18299     18297     18300     18301     18305     18306
     18301     18305     18307     18301     18305     18308     18302     18301     18303
     18302     18301     18304     18302     18301     18305     18303     18301     18304
     18303     18301     18305     18304     18301     18305     18305     18308     18309
     18305     18308     18310     18305     18308     18314     18306     18305     18307
     18306     18305     18308     18307     18305     18308     18308     18314     18311
     18309     18308     18310     18309     18308     18314     18310     18308     18314
     18311     18315     18316     18312     18311     18313     18312     18311     18314
     18312     18311     18315     18313     18311     18314     18313     18311     18315
     18314     18311     18315     18315     18316     18317     18315     18316     18318
     18315     18316     18319     18316     18319     18320     18316     18319     18321
     18316     18319     18327     18317     18316     18318     18317     18316     18319
     18318     18316     18319     18319     18321     18322     18319     18327     18328
     18319     18327     18329     18319     18327     18330     18320     18319     18321
     18320     18319     18327     18321     18319     18327     18321     18322     18323
     18321     18322     18324     18322     18324     18325     18322     18324     18326
     18322     18324     18336     18323     18322     18324     18324     18336     18337
     18324     18336     18338     18324     18336     18339     18325     18324     18326
     18325     18324     18336     18326     18324     18336     18327     18330     18331
     18328     18327     18329     18328     18327     18330     18329     18327     18330
     18330     18331     18332     18330     18331     18333     18331     18333     18334
     18331     18333     18335     18331     18333     18383     18332     18331     18333
     18333     18383     18384     18333     18383     18385     18333     18383     18386
     18334     18333     18335     18334     18333     18383     18335     18333     18383
     18336     18339     18340     18336     18339     18341     18336     18339     18342
     18337     18336     18338     18337     18336     18339     18338     18336     18339
     18339     18342     18343     18339     18342     18344     18340     18339     18341
     18340     18339     18342     18341     18339     18342     18342     18344     18345
     18342     18344     18346     18343     18342     18344     18344     18346     18347
     18344     18346     18348     18344     18346     18349     18345     18344     18346
     18346     18349     18350     18346     18349     18351     18347     18346     18348
     18347     18346     18349     18348     18346     18349     18349     18351     18352
     18349     18351     18353     18350     18349     18351     18351     18353     18354
     18351     18353     18355     18351     18353     18356     18352     18351     18353
     18353     18356     18357     18353     18356     18358     18354     18353     18355
     18354     18353     18356     18355     18353     18356     18356     18358     18359
     18356     18358     18360     18357     18356     18358     18358     18360     18361
     18358     18360     18362     18358     18360     18363     18359     18358     18360
     18360     18363     18364     18360     18363     18365     18361     18360     18362
     18361     18360     18363     18362     18360     18363     18363     18365     18366
     18363     18365     18367     18364     18363     18365     18365     18367     18368
     18365     18367     18369     18365     18367     18370     18366     18365     18367
     18367     18370     18371     18367     18370     18372     18367     18370     18373
     18368     18367     18369     18368     18367     18370     18369     18367     18370
     18370     18373     18374     18370     18373     18375     18370     18373     18376
     18371     18370     18372     18371     18370     18373     18372     18370     18373
     18373     18376     18377     18373     18376     18378     18373     18376     18379
     18374     18373     18375     18374     18373     18376     18375     18373     18376
     18376     18379     18380     18376     18379     18381     18376     18379     18382
     18377     18376     18378     18377     18376     18379     18378     18376     18379
     18380     18379     18381     18380     18379     18382     18381     18379     18382
     18383     18386     18387     18383     18386     18388     18383     18386     18389
     18384     18383     18385     18384     18383     18386     18385     18383     18386
     18386     18389     18390     18386     18389     18391     18386     18389     18392
     18387     18386     18388     18387     18386     18389     18388     18386     18389
     18389     18392     18393     18389     18392     18394     18389     18392     18395
     18390     18389     18391     18390     18389     18392     18391     18389     18392
     18392     18395     18396     18392     18395     18397     18392     18395     18398
     18393     18392     18394     18393     18392     18395     18394     18392     18395
     18395     18398     18399     18395     18398     18400     18395     18398     18401
     18396     18395     18397     18396     18395     18398     18397     18395     18398
     18398     18401     18402     18398     18401     18403     18398     18401     18404
     18399     18398     18400     18399     18398     18401     18400     18398     18401
     18401     18404     18405     18401     18404     18406     18401     18404     18407
     18402     18401     18403     18402     18401     18404     18403     18401     18404
     18404     18407     18408     18404     18407     18409     18404     18407     18410
     18405     18404     18406     18405     18404     18407     18406     18404     18407
     18407     18410     18411     18407     18410     18412     18407     18410     18413
     18408     18407     18409     18408     18407     18410     18409     18407     18410
     18410     18413     18414     18410     18413     18415     18410     18413     18416
     18411     18410     18412     18411     18410     18413     18412     18410     18413
     18413     18416     18417     18413     18416     18418     18413     18416     18419
     18414     18413     18415     18414     18413     18416     18415     18413     18416
     18416     18419     18420     18416     18419     18421     18416     18419     18422
     18417     18416     18418     18417     18416     18419     18418     18416     18419
     18419     18422     18423     18419     18422     18424     18419     18422     18425
     18420     18419     18421     18420     18419     18422     18421     18419     18422
     18422     18425     18426     18422     18425     18427     18422     18425     18428
     18423     18422     18424     18423     18422     18425     18424     18422     18425
     18425     18428     18429     18425     18428     18430     18425     18428     18431
     18426     18425     18427     18426     18425     18428     18427     18425     18428
     18429     18428     18430     18429     18428     18431     18430     18428     18431
     18432     18434     18435     18432     18436     18437     18432     18436     18438
     18432     18436     18439     18432     18478     18475     18432     18478     18479
     18432     18478     18480     18433     18432     18434     18433     18432     18436
     18433     18432     18478     18434     18432     18436     18434     18432     18478
     18436     18432     18478     18436     18439     18440     18436     18439     18470
     18437     18436     18438     18437     18436     18439     18438     18436     18439
     18439     18440     18441     18439     18440     18442     18439     18470     18468
     18439     18470     18471     18439     18470     18475     18440     18439     18470
     18440     18442     18443     18440     18442     18444     18440     18442     18445
     18441     18440     18442     18442     18445     18446     18442     18445     18447
     18442     18445     18468     18443     18442     18444     18443     18442     18445
     18444     18442     18445     18445     18447     18448     18445     18447     18449
     18445     18447     18457     18445     18468     18465     18445     18468     18469
     18445     18468     18470     18446     18445     18447     18446     18445     18468
     18447     18445     18468     18447     18449     18450     18447     18449     18451
     18447     18449     18452     18447     18457     18455     18447     18457     18458
     18447     18457     18462     18448     18447     18449     18448     18447     18457
     18449     18447     18457     18449     18452     18453     18449     18452     18454
     18449     18452     18455     18450     18449     18451     18450     18449     18452
     18451     18449     18452     18452     18455     18456     18452     18455     18457
     18452     18455     18481     18453     18452     18454     18453     18452     18455
     18454     18452     18455     18455     18457     18458     18455     18457     18462
     18455     18481     18482     18455     18481     18483     18455     18481     18487
     18456     18455     18457     18456     18455     18481     18457     18455     18481
     18457     18458     18459     18457     18458     18460     18457     18458     18461
     18457     18462     18463     18457     18462     18464     18457     18462     18465
     18458     18457     18462     18459     18458     18460     18459     18458     18461
     18460     18458     18461     18462     18465     18466     18462     18465     18467
     18462     18465     18468     18463     18462     18464     18463     18462     18465
     18464     18462     18465     18465     18468     18469     18465     18468     18470
     18466     18465     18467     18466     18465     18468     18467     18465     18468
     18468     18470     18471     18468     18470     18475     18469     18468     18470
     18470     18471     18472     18470     18471     18473     18470     18471     18474
     18470     18475     18476     18470     18475     18477     18470     18475     18478
     18471     18470     18475     18472     18471     18473     18472     18471     18474
     18473     18471     18474     18475     18478     18479     18475     18478     18480
     18476     18475     18477     18476     18475     18478     18477     18475     18478
     18479     18478     18480     18481     18483     18484     18481     18483     18485
     18481     18483     18486     18481     18487     18488     18481     18487     18489
     18481     18487     18490     18482     18481     18483     18482     18481     18487
     18483     18481     18487     18484     18483     18485     18484     18483     18486
     18485     18483     18486     18487     18490     18491     18487     18490     18492
     18487     18490     18493     18488     18487     18489     18488     18487     18490
     18489     18487     18490     18490     18493     18494     18490     18493     18495
     18490     18493     18496     18491     18490     18492     18491     18490     18493
     18492     18490     18493     18493     18496     18497     18493     18496     18498
     18493     18496     18502     18494     18493     18495     18494     18493     18496
     18495     18493     18496     18496     18498     18499     18496     18498     18500
     18496     18498     18501     18496     18502     18503     18496     18502     18504
     18496     18502     18505     18497     18496     18498     18497     18496     18502
     18498     18496     18502     18499     18498     18500     18499     18498     18501
     18500     18498     18501     18503     18502     18504     18503     18502     18505
     18504     18502     18505     18506     18510     18511     18506     18510     18512
     18506     18510     18513     18507     18506     18508     18507     18506     18509
     18507     18506     18510     18508     18506     18509     18508     18506     18510
     18509     18506     18510     18510     18513     18514     18510     18513     18515
     18510     18513     18519     18511     18510     18512     18511     18510     18513
     18512     18510     18513     18513     18519     18516     18514     18513     18515
     18514     18513     18519     18515     18513     18519     18516     18520     18521
     18517     18516     18518     18517     18516     18519     18517     18516     18520
     18518     18516     18519     18518     18516     18520     18519     18516     18520
     18520     18521     18522     18520     18521     18523     18520     18521     18524
     18521     18524     18525     18521     18524     18526     18521     18524     18532
     18522     18521     18523     18522     18521     18524     18523     18521     18524
     18524     18526     18527     18524     18532     18533     18524     18532     18534
     18524     18532     18535     18525     18524     18526     18525     18524     18532
     18526     18524     18532     18526     18527     18528     18526     18527     18529
     18527     18529     18530     18527     18529     18531     18527     18529     18541
     18528     18527     18529     18529     18541     18542     18529     18541     18543
     18529     18541     18544     18530     18529     18531     18530     18529     18541
     18531     18529     18541     18532     18535     18536     18533     18532     18534
     18533     18532     18535     18534     18532     18535     18535     18536     18537
     18535     18536     18538     18536     18538     18539     18536     18538     18540
     18536     18538     18588     18537     18536     18538     18538     18588     18589
     18538     18588     18590     18538     18588     18591     18539     18538     18540
     18539     18538     18588     18540     18538     18588     18541     18544     18545
     18541     18544     18546     18541     18544     18547     18542     18541     18543
     18542     18541     18544     18543     18541     18544     18544     18547     18548
     18544     18547     18549     18545     18544     18546     18545     18544     18547
     18546     18544     18547     18547     18549     18550     18547     18549     18551
     18548     18547     18549     18549     18551     18552     18549     18551     18553
     18549     18551     18554     18550     18549     18551     18551     18554     18555
     18551     18554     18556     18552     18551     18553     18552     18551     18554
     18553     18551     18554     18554     18556     18557     18554     18556     18558
     18555     18554     18556     18556     18558     18559     18556     18558     18560
     18556     18558     18561     18557     18556     18558     18558     18561     18562
     18558     18561     18563     18559     18558     18560     18559     18558     18561
     18560     18558     18561     18561     18563     18564     18561     18563     18565
     18562     18561     18563     18563     18565     18566     18563     18565     18567
     18563     18565     18568     18564     18563     18565     18565     18568     18569
     18565     18568     18570     18566     18565     18567     18566     18565     18568
     18567     18565     18568     18568     18570     18571     18568     18570     18572
     18569     18568     18570     18570     18572     18573     18570     18572     18574
     18570     18572     18575     18571     18570     18572     18572     18575     18576
     18572     18575     18577     18572     18575     18578     18573     18572     18574
     18573     18572     18575     18574     18572     18575     18575     18578     18579
     18575     18578     18580     18575     18578     18581     18576     18575     18577
     18576     18575     18578     18577     18575     18578     18578     18581     18582
     18578     18581     18583     18578     18581     18584     18579     18578     18580
     18579     18578     18581     18580     18578     18581     18581     18584     18585
     18581     18584     18586     18581     18584     18587     18582     18581     18583
     18582     18581     18584     18583     18581     18584     18585     18584     18586
     18585     18584     18587     18586     18584     18587     18588     18591     18592
     18588     18591     18593     18588     18591     18594     18589     18588     18590
     18589     18588     18591     18590     18588     18591     18591     18594     18595
     18591     18594     18596     18591     18594     18597     18592     18591     18593
     18592     18591     18594     18593     18591     18594     18594     18597     18598
     18594     18597     18599     18594     18597     18600     18595     18594     18596
     18595     18594     18597     18596     18594     18597     18597     18600     18601
     18597     18600     18602     18597     18600     18603     18598     18597     18599
     18598     18597     18600     18599     18597     18600     18600     18603     18604
     18600     18603     18605     18600     18603     18606     18601     18600     18602
     18601     18600     18603     18602     18600     18603     18603     18606     18607
     18603     18606     18608     18603     18606     18609     18604     18603     18605
     18604     18603     18606     18605     18603     18606     18606     18609     18610
     18606     18609     18611     18606     18609     18612     18607     18606     18608
     18607     18606     18609     18608     18606     18609     18609     18612     18613
     18609     18612     18614     18609     18612     18615     18610     18609     18611
     18610     18609     18612     18611     18609     18612     18612     18615     18616
     18612     18615     18617     18612     18615     18618     18613     18612     18614
     18613     18612     18615     18614     18612     18615     18615     18618     18619
     18615     18618     18620     18615     18618     18621     18616     18615     18617
     18616     18615     18618     18617     18615     18618     18618     18621     18622
     18618     18621     18623     18618     18621     18624     18619     18618     18620
     18619     18618     18621     18620     18618     18621     18621     18624     18625
     18621     18624     18626     18621     18624     18627     18622     18621     18623
     18622     18621     18624     18623     18621     18624     18624     18627     18628
     18624     18627     18629     18624     18627     18630     18625     18624     18626
     18625     18624     18627     18626     18624     18627     18627     18630     18631
     18627     18630     18632     18627     18630     18633     18628     18627     18629
     18628     18627     18630     18629     18627     18630     18630     18633     18634
     18630     18633     18635     18630     18633     18636     18631     18630     18632
     18631     18630     18633     18632     18630     18633     18634     18633     18635
     18634     18633     18636     18635     18633     18636     18637     18639     18640
     18637     18641     18642     18637     18641     18643     18637     18641     18644
     18637     18683     18680     18637     18683     18684     18637     18683     18685
     18638     18637     18639     18638     18637     18641     18638     18637     18683
     18639     18637     18641     18639     18637     18683     18641     18637     18683
     18641     18644     18645     18641     18644     18675     18642     18641     18643
     18642     18641     18644     18643     18641     18644     18644     18645     18646
     18644     18645     18647     18644     18675     18673     18644     18675     18676
     18644     18675     18680     18645     18644     18675     18645     18647     18648
     18645     18647     18649     18645     18647     18650     18646     18645     18647
     18647     18650     18651     18647     18650     18652     18647     18650     18673
     18648     18647     18649     18648     18647     18650     18649     18647     18650
     18650     18652     18653     18650     18652     18654     18650     18652     18662
     18650     18673     18670     18650     18673     18674     18650     18673     18675
     18651     18650     18652     18651     18650     18673     18652     18650     18673
     18652     18654     18655     18652     18654     18656     18652     18654     18657
     18652     18662     18660     18652     18662     18663     18652     18662     18667
     18653     18652     18654     18653     18652     18662     18654     18652     18662
     18654     18657     18658     18654     18657     18659     18654     18657     18660
     18655     18654     18656     18655     18654     18657     18656     18654     18657
     18657     18660     18661     18657     18660     18662     18657     18660     18686
     18658     18657     18659     18658     18657     18660     18659     18657     18660
     18660     18662     18663     18660     18662     18667     18660     18686     18687
     18660     18686     18688     18660     18686     18692     18661     18660     18662
     18661     18660     18686     18662     18660     18686     18662     18663     18664
     18662     18663     18665     18662     18663     18666     18662     18667     18668
     18662     18667     18669     18662     18667     18670     18663     18662     18667
     18664     18663     18665     18664     18663     18666     18665     18663     18666
     18667     18670     18671     18667     18670     18672     18667     18670     18673
     18668     18667     18669     18668     18667     18670     18669     18667     18670
     18670     18673     18674     18670     18673     18675     18671     18670     18672
     18671     18670     18673     18672     18670     18673     18673     18675     18676
     18673     18675     18680     18674     18673     18675     18675     18676     18677
     18675     18676     18678     18675     18676     18679     18675     18680     18681
     18675     18680     18682     18675     18680     18683     18676     18675     18680
     18677     18676     18678     18677     18676     18679     18678     18676     18679
     18680     18683     18684     18680     18683     18685     18681     18680     18682
     18681     18680     18683     18682     18680     18683     18684     18683     18685
     18686     18688     18689     18686     18688     18690     18686     18688     18691
     18686     18692     18693     18686     18692     18694     18686     18692     18695
     18687     18686     18688     18687     18686     18692     18688     18686     18692
     18689     18688     18690     18689     18688     18691     18690     18688     18691
     18692     18695     18696     18692     18695     18697     18692     18695     18698
     18693     18692     18694     18693     18692     18695     18694     18692     18695
     18695     18698     18699     18695     18698     18700     18695     18698     18701
     18696     18695     18697     18696     18695     18698     18697     18695     18698
     18698     18701     18702     18698     18701     18703     18698     18701     18707
     18699     18698     18700     18699     18698     18701     18700     18698     18701
     18701     18703     18704     18701     18703     18705     18701     18703     18706
     18701     18707     18708     18701     18707     18709     18701     18707     18710
     18702     18701     18703     18702     18701     18707     18703     18701     18707
     18704     18703     18705     18704     18703     18706     18705     18703     18706
     18708     18707     18709     18708     18707     18710     18709     18707     18710
     18711     18712     18713     18711     18712     18714     18711     18712     18715
     18711     18716     18717     18711     18716     18718     18711     18716     18719
     18711     18720     18721     18711     18720     18722     18711     18720     18723
     18711     18724     18725     18711     18724     18726     18711     18724     18727
     18712     18711     18716     18712     18711     18720     18712     18711     18724
     18713     18712     18714     18713     18712     18715     18714     18712     18715
     18716     18711     18720     18716     18711     18724     18717     18716     18718
     18717     18716     18719     18718     18716     18719     18720     18711     18724
     18721     18720     18722     18721     18720     18723     18722     18720     18723
     18724     18727     18728     18724     18727     18729     18724     18727     18734
     18725     18724     18726     18725     18724     18727     18726     18724     18727
     18727     18734     18730     18728     18727     18729     18728     18727     18734
     18729     18727     18734     18730     18733     18735     18731     18730     18732
     18731     18730     18733     18731     18730     18734     18732     18730     18733
     18732     18730     18734     18733     18730     18734     18733     18735     18736
     18733     18735     18737     18733     18735     18740     18735     18740     18738
     18735     18740     18741     18735     18740     18742     18736     18735     18737
     18736     18735     18740     18737     18735     18740     18738     18740     18741
     18738     18740     18742     18738     18790     18791     18738     18790     18792
     18739     18738     18740     18739     18738     18790     18740     18738     18790
     18740     18742     18743     18740     18742     18744     18740     18742     18746
     18741     18740     18742     18742     18744     18745     18742     18746     18747
     18742     18746     18748     18743     18742     18744     18743     18742     18746
     18744     18742     18746     18746     18748     18749     18746     18748     18750
     18747     18746     18748     18748     18750     18751     18748     18750     18752
     18748     18750     18753     18749     18748     18750     18750     18753     18754
     18750     18753     18755     18750     18753     18756     18751     18750     18752
     18751     18750     18753     18752     18750     18753     18753     18756     18757
     18753     18756     18758     18753     18756     18759     18754     18753     18755
     18754     18753     18756     18755     18753     18756     18756     18759     18760
     18756     18759     18761     18756     18759     18762     18757     18756     18758
     18757     18756     18759     18758     18756     18759     18759     18762     18763
     18759     18762     18764     18759     18762     18765     18760     18759     18761
     18760     18759     18762     18761     18759     18762     18762     18765     18766
     18762     18765     18767     18762     18765     18768     18763     18762     18764
     18763     18762     18765     18764     18762     18765     18765     18768     18769
     18765     18768     18770     18765     18768     18771     18766     18765     18767
     18766     18765     18768     18767     18765     18768     18768     18771     18772
     18768     18771     18773     18768     18771     18774     18769     18768     18770
     18769     18768     18771     18770     18768     18771     18771     18774     18775
     18771     18774     18776     18771     18774     18777     18772     18771     18773
     18772     18771     18774     18773     18771     18774     18774     18777     18778
     18774     18777     18779     18774     18777     18780     18775     18774     18776
     18775     18774     18777     18776     18774     18777     18777     18780     18781
     18777     18780     18782     18777     18780     18783     18778     18777     18779
     18778     18777     18780     18779     18777     18780     18780     18783     18784
     18780     18783     18785     18780     18783     18786     18781     18780     18782
     18781     18780     18783     18782     18780     18783     18783     18786     18787
     18783     18786     18788     18783     18786     18789     18784     18783     18785
     18784     18783     18786     18785     18783     18786     18787     18786     18788
     18787     18786     18789     18788     18786     18789     18790     18792     18793
     18790     18792     18794     18790     18792     18795     18791     18790     18792
     18792     18795     18796     18792     18795     18797     18792     18795     18798
     18793     18792     18794     18793     18792     18795     18794     18792     18795
     18795     18798     18799     18795     18798     18800     18795     18798     18801
     18796     18795     18797     18796     18795     18798     18797     18795     18798
     18798     18801     18802     18798     18801     18803     18798     18801     18804
     18799     18798     18800     18799     18798     18801     18800     18798     18801
     18801     18804     18805     18801     18804     18806     18801     18804     18807
     18802     18801     18803     18802     18801     18804     18803     18801     18804
     18804     18807     18808     18804     18807     18809     18804     18807     18810
     18805     18804     18806     18805     18804     18807     18806     18804     18807
     18807     18810     18811     18807     18810     18812     18807     18810     18813
     18808     18807     18809     18808     18807     18810     18809     18807     18810
     18810     18813     18814     18810     18813     18815     18811     18810     18812
     18811     18810     18813     18812     18810     18813     18813     18815     18816
     18813     18815     18817     18814     18813     18815     18815     18817     18818
     18815     18817     18819     18815     18817     18820     18816     18815     18817
     18817     18820     18821     18817     18820     18822     18817     18820     18823
     18818     18817     18819     18818     18817     18820     18819     18817     18820
     18820     18823     18824     18820     18823     18825     18820     18823     18826
     18821     18820     18822     18821     18820     18823     18822     18820     18823
     18823     18826     18827     18823     18826     18828     18823     18826     18829
     18824     18823     18825     18824     18823     18826     18825     18823     18826
     18826     18829     18830     18826     18829     18831     18826     18829     18832
     18827     18826     18828     18827     18826     18829     18828     18826     18829
     18829     18832     18833     18829     18832     18834     18829     18832     18835
     18830     18829     18831     18830     18829     18832     18831     18829     18832
     18832     18835     18836     18832     18835     18837     18832     18835     18838
     18833     18832     18834     18833     18832     18835     18834     18832     18835
     18835     18838     18839     18835     18838     18840     18835     18838     18841
     18836     18835     18837     18836     18835     18838     18837     18835     18838
     18839     18838     18840     18839     18838     18841     18840     18838     18841
     18842     18843     18844     18842     18843     18845     18842     18843     18846
     18842     18847     18848     18842     18847     18849     18842     18847     18850
     18842     18851     18852     18842     18851     18853     18842     18851     18854
     18842     18855     18856     18842     18855     18857     18842     18855     18858
     18843     18842     18847     18843     18842     18851     18843     18842     18855
     18844     18843     18845     18844     18843     18846     18845     18843     18846
     18847     18842     18851     18847     18842     18855     18848     18847     18849
     18848     18847     18850     18849     18847     18850     18851     18842     18855
     18852     18851     18853     18852     18851     18854     18853     18851     18854
     18855     18858     18859     18855     18858     18860     18855     18858     18864
     18856     18855     18857     18856     18855     18858     18857     18855     18858
     18858     18864     18861     18859     18858     18860     18859     18858     18864
     18860     18858     18864     18861     18865     18866     18862     18861     18863
     18862     18861     18864     18862     18861     18865     18863     18861     18864
     18863     18861     18865     18864     18861     18865     18865     18866     18867
     18865     18866     18868     18865     18866     18869     18866     18869     18870
     18866     18869     18871     18866     18869     18877     18867     18866     18868
     18867     18866     18869     18868     18866     18869     18869     18871     18872
     18869     18877     18878     18869     18877     18879     18869     18877     18880
     18870     18869     18871     18870     18869     18877     18871     18869     18877
     18871     18872     18873     18871     18872     18874     18872     18874     18875
     18872     18874     18876     18872     18874     18886     18873     18872     18874
     18874     18886     18887     18874     18886     18888     18874     18886     18889
     18875     18874     18876     18875     18874     18886     18876     18874     18886
     18877     18880     18881     18878     18877     18879     18878     18877     18880
     18879     18877     18880     18880     18881     18882     18880     18881     18883
     18881     18883     18884     18881     18883     18885     18881     18883     18931
     18882     18881     18883     18883     18931     18932     18883     18931     18933
     18883     18931     18934     18884     18883     18885     18884     18883     18931
     18885     18883     18931     18886     18889     18890     18886     18889     18891
     18886     18889     18892     18887     18886     18888     18887     18886     18889
     18888     18886     18889     18889     18892     18893     18889     18892     18894
     18889     18892     18895     18890     18889     18891     18890     18889     18892
     18891     18889     18892     18892     18895     18896     18892     18895     18897
     18892     18895     18898     18893     18892     18894     18893     18892     18895
     18894     18892     18895     18895     18898     18899     18895     18898     18900
     18895     18898     18901     18896     18895     18897     18896     18895     18898
     18897     18895     18898     18898     18901     18902     18898     18901     18903
     18898     18901     18904     18899     18898     18900     18899     18898     18901
     18900     18898     18901     18901     18904     18905     18901     18904     18906
     18902     18901     18903     18902     18901     18904     18903     18901     18904
     18904     18906     18907     18904     18906     18908     18905     18904     18906
     18906     18908     18909     18906     18908     18910     18906     18908     18911
     18907     18906     18908     18908     18911     18912     18908     18911     18913
     18909     18908     18910     18909     18908     18911     18910     18908     18911
     18911     18913     18914     18911     18913     18915     18912     18911     18913
     18913     18915     18916     18913     18915     18917     18913     18915     18918
     18914     18913     18915     18915     18918     18919     18915     18918     18920
     18915     18918     18921     18916     18915     18917     18916     18915     18918
     18917     18915     18918     18918     18921     18922     18918     18921     18923
     18918     18921     18924     18919     18918     18920     18919     18918     18921
     18920     18918     18921     18921     18924     18925     18921     18924     18926
     18921     18924     18927     18922     18921     18923     18922     18921     18924
     18923     18921     18924     18924     18927     18928     18924     18927     18929
     18924     18927     18930     18925     18924     18926     18925     18924     18927
     18926     18924     18927     18928     18927     18929     18928     18927     18930
     18929     18927     18930     18931     18934     18935     18931     18934     18936
     18931     18934     18937     18932     18931     18933     18932     18931     18934
     18933     18931     18934     18934     18937     18938     18934     18937     18939
     18934     18937     18940     18935     18934     18936     18935     18934     18937
     18936     18934     18937     18937     18940     18941     18937     18940     18942
     18937     18940     18943     18938     18937     18939     18938     18937     18940
     18939     18937     18940     18940     18943     18944     18940     18943     18945
     18940     18943     18946     18941     18940     18942     18941     18940     18943
     18942     18940     18943     18943     18946     18947     18943     18946     18948
     18943     18946     18949     18944     18943     18945     18944     18943     18946
     18945     18943     18946     18946     18949     18950     18946     18949     18951
     18946     18949     18952     18947     18946     18948     18947     18946     18949
     18948     18946     18949     18949     18952     18953     18949     18952     18954
     18949     18952     18955     18950     18949     18951     18950     18949     18952
     18951     18949     18952     18952     18955     18956     18952     18955     18957
     18952     18955     18958     18953     18952     18954     18953     18952     18955
     18954     18952     18955     18955     18958     18959     18955     18958     18960
     18955     18958     18961     18956     18955     18957     18956     18955     18958
     18957     18955     18958     18958     18961     18962     18958     18961     18963
     18958     18961     18964     18959     18958     18960     18959     18958     18961
     18960     18958     18961     18961     18964     18965     18961     18964     18966
     18961     18964     18967     18962     18961     18963     18962     18961     18964
     18963     18961     18964     18964     18967     18968     18964     18967     18969
     18964     18967     18970     18965     18964     18966     18965     18964     18967
     18966     18964     18967     18967     18970     18971     18967     18970     18972
     18967     18970     18973     18968     18967     18969     18968     18967     18970
     18969     18967     18970     18970     18973     18974     18970     18973     18975
     18970     18973     18976     18971     18970     18972     18971     18970     18973
     18972     18970     18973     18973     18976     18977     18973     18976     18978
     18973     18976     18979     18974     18973     18975     18974     18973     18976
     18975     18973     18976     18977     18976     18978     18977     18976     18979
     18978     18976     18979     18980     18981     18982     18980     18981     18983
     18980     18981     18996     18980     18984     18985     18980     18984     18986
     18980     18984     18987     18980     18988     18989     18980     18988     18990
     18980     18988     18991     18980     18992     18993     18980     18992     18994
     18980     18992     18995     18981     18980     18984     18981     18980     18988
     18981     18980     18992     18981     18996     18997     18981     18996     18998
     18981     18996     19002     18982     18981     18983     18982     18981     18996
     18983     18981     18996     18984     18980     18988     18984     18980     18992
     18985     18984     18986     18985     18984     18987     18986     18984     18987
     18988     18980     18992     18989     18988     18990     18989     18988     18991
     18990     18988     18991     18993     18992     18994     18993     18992     18995
     18994     18992     18995     18996     19002     18999     18997     18996     18998
     18997     18996     19002     18998     18996     19002     18999     19003     19004
     19000     18999     19001     19000     18999     19002     19000     18999     19003
     19001     18999     19002     19001     18999     19003     19002     18999     19003
     19003     19004     19005     19003     19004     19006     19003     19004     19007
     19004     19007     19008     19004     19007     19009     19004     19007     19015
     19005     19004     19006     19005     19004     19007     19006     19004     19007
     19007     19009     19010     19007     19015     19016     19007     19015     19017
     19007     19015     19018     19008     19007     19009     19008     19007     19015
     19009     19007     19015     19009     19010     19011     19009     19010     19012
     19010     19012     19013     19010     19012     19014     19010     19012     19024
     19011     19010     19012     19012     19024     19025     19012     19024     19026
     19012     19024     19027     19013     19012     19014     19013     19012     19024
     19014     19012     19024     19015     19018     19019     19016     19015     19017
     19016     19015     19018     19017     19015     19018     19018     19019     19020
     19018     19019     19021     19019     19021     19022     19019     19021     19023
     19019     19021     19071     19020     19019     19021     19021     19071     19072
     19021     19071     19073     19021     19071     19074     19022     19021     19023
     19022     19021     19071     19023     19021     19071     19024     19027     19028
     19024     19027     19029     19024     19027     19030     19025     19024     19026
     19025     19024     19027     19026     19024     19027     19027     19030     19031
     19027     19030     19032     19028     19027     19029     19028     19027     19030
     19029     19027     19030     19030     19032     19033     19030     19032     19034
     19031     19030     19032     19032     19034     19035     19032     19034     19036
     19032     19034     19037     19033     19032     19034     19034     19037     19038
     19034     19037     19039     19035     19034     19036     19035     19034     19037
     19036     19034     19037     19037     19039     19040     19037     19039     19041
     19038     19037     19039     19039     19041     19042     19039     19041     19043
     19039     19041     19044     19040     19039     19041     19041     19044     19045
     19041     19044     19046     19042     19041     19043     19042     19041     19044
     19043     19041     19044     19044     19046     19047     19044     19046     19048
     19045     19044     19046     19046     19048     19049     19046     19048     19050
     19046     19048     19051     19047     19046     19048     19048     19051     19052
     19048     19051     19053     19049     19048     19050     19049     19048     19051
     19050     19048     19051     19051     19053     19054     19051     19053     19055
     19052     19051     19053     19053     19055     19056     19053     19055     19057
     19053     19055     19058     19054     19053     19055     19055     19058     19059
     19055     19058     19060     19055     19058     19061     19056     19055     19057
     19056     19055     19058     19057     19055     19058     19058     19061     19062
     19058     19061     19063     19058     19061     19064     19059     19058     19060
     19059     19058     19061     19060     19058     19061     19061     19064     19065
     19061     19064     19066     19061     19064     19067     19062     19061     19063
     19062     19061     19064     19063     19061     19064     19064     19067     19068
     19064     19067     19069     19064     19067     19070     19065     19064     19066
     19065     19064     19067     19066     19064     19067     19068     19067     19069
     19068     19067     19070     19069     19067     19070     19071     19074     19075
     19071     19074     19076     19071     19074     19077     19072     19071     19073
     19072     19071     19074     19073     19071     19074     19074     19077     19078
     19074     19077     19079     19074     19077     19080     19075     19074     19076
     19075     19074     19077     19076     19074     19077     19077     19080     19081
     19077     19080     19082     19077     19080     19083     19078     19077     19079
     19078     19077     19080     19079     19077     19080     19080     19083     19084
     19080     19083     19085     19080     19083     19086     19081     19080     19082
     19081     19080     19083     19082     19080     19083     19083     19086     19087
     19083     19086     19088     19083     19086     19089     19084     19083     19085
     19084     19083     19086     19085     19083     19086     19086     19089     19090
     19086     19089     19091     19086     19089     19092     19087     19086     19088
     19087     19086     19089     19088     19086     19089     19089     19092     19093
     19089     19092     19094     19089     19092     19095     19090     19089     19091
     19090     19089     19092     19091     19089     19092     19092     19095     19096
     19092     19095     19097     19092     19095     19098     19093     19092     19094
     19093     19092     19095     19094     19092     19095     19095     19098     19099
     19095     19098     19100     19095     19098     19101     19096     19095     19097
     19096     19095     19098     19097     19095     19098     19098     19101     19102
     19098     19101     19103     19098     19101     19104     19099     19098     19100
     19099     19098     19101     19100     19098     19101     19101     19104     19105
     19101     19104     19106     19101     19104     19107     19102     19101     19103
     19102     19101     19104     19103     19101     19104     19104     19107     19108
     19104     19107     19109     19104     19107     19110     19105     19104     19106
     19105     19104     19107     19106     19104     19107     19107     19110     19111
     19107     19110     19112     19107     19110     19113     19108     19107     19109
     19108     19107     19110     19109     19107     19110     19110     19113     19114
     19110     19113     19115     19110     19113     19116     19111     19110     19112
     19111     19110     19113     19112     19110     19113     19113     19116     19117
     19113     19116     19118     19113     19116     19119     19114     19113     19115
     19114     19113     19116     19115     19113     19116     19117     19116     19118
     19117     19116     19119     19118     19116     19119     19120     19124     19125
     19120     19124     19126     19120     19124     19129     19121     19120     19122
     19121     19120     19123     19121     19120     19124     19122     19120     19123
     19122     19120     19124     19123     19120     19124     19124     19126     19127
     19124     19126     19128     19124     19129     19130     19124     19129     19131
     19124     19129     19135     19125     19124     19126     19125     19124     19129
     19126     19124     19129     19127     19126     19128     19129     19135     19132
     19130     19129     19131     19130     19129     19135     19131     19129     19135
     19132     19136     19137     19133     19132     19134     19133     19132     19135
     19133     19132     19136     19134     19132     19135     19134     19132     19136
     19135     19132     19136     19136     19137     19138     19136     19137     19139
     19136     19137     19140     19137     19140     19141     19137     19140     19142
     19137     19140     19148     19138     19137     19139     19138     19137     19140
     19139     19137     19140     19140     19142     19143     19140     19148     19149
     19140     19148     19150     19140     19148     19151     19141     19140     19142
     19141     19140     19148     19142     19140     19148     19142     19143     19144
     19142     19143     19145     19143     19145     19146     19143     19145     19147
     19143     19145     19157     19144     19143     19145     19145     19157     19158
     19145     19157     19159     19145     19157     19160     19146     19145     19147
     19146     19145     19157     19147     19145     19157     19148     19151     19152
     19149     19148     19150     19149     19148     19151     19150     19148     19151
     19151     19152     19153     19151     19152     19154     19152     19154     19155
     19152     19154     19156     19152     19154     19204     19153     19152     19154
     19154     19204     19205     19154     19204     19206     19154     19204     19207
     19155     19154     19156     19155     19154     19204     19156     19154     19204
     19157     19160     19161     19157     19160     19162     19157     19160     19163
     19158     19157     19159     19158     19157     19160     19159     19157     19160
     19160     19163     19164     19160     19163     19165     19161     19160     19162
     19161     19160     19163     19162     19160     19163     19163     19165     19166
     19163     19165     19167     19164     19163     19165     19165     19167     19168
     19165     19167     19169     19165     19167     19170     19166     19165     19167
     19167     19170     19171     19167     19170     19172     19168     19167     19169
     19168     19167     19170     19169     19167     19170     19170     19172     19173
     19170     19172     19174     19171     19170     19172     19172     19174     19175
     19172     19174     19176     19172     19174     19177     19173     19172     19174
     19174     19177     19178     19174     19177     19179     19175     19174     19176
     19175     19174     19177     19176     19174     19177     19177     19179     19180
     19177     19179     19181     19178     19177     19179     19179     19181     19182
     19179     19181     19183     19179     19181     19184     19180     19179     19181
     19181     19184     19185     19181     19184     19186     19182     19181     19183
     19182     19181     19184     19183     19181     19184     19184     19186     19187
     19184     19186     19188     19185     19184     19186     19186     19188     19189
     19186     19188     19190     19186     19188     19191     19187     19186     19188
     19188     19191     19192     19188     19191     19193     19188     19191     19194
     19189     19188     19190     19189     19188     19191     19190     19188     19191
     19191     19194     19195     19191     19194     19196     19191     19194     19197
     19192     19191     19193     19192     19191     19194     19193     19191     19194
     19194     19197     19198     19194     19197     19199     19194     19197     19200
     19195     19194     19196     19195     19194     19197     19196     19194     19197
     19197     19200     19201     19197     19200     19202     19197     19200     19203
     19198     19197     19199     19198     19197     19200     19199     19197     19200
     19201     19200     19202     19201     19200     19203     19202     19200     19203
     19204     19207     19208     19204     19207     19209     19204     19207     19210
     19205     19204     19206     19205     19204     19207     19206     19204     19207
     19207     19210     19211     19207     19210     19212     19207     19210     19213
     19208     19207     19209     19208     19207     19210     19209     19207     19210
     19210     19213     19214     19210     19213     19215     19210     19213     19216
     19211     19210     19212     19211     19210     19213     19212     19210     19213
     19213     19216     19217     19213     19216     19218     19213     19216     19219
     19214     19213     19215     19214     19213     19216     19215     19213     19216
     19216     19219     19220     19216     19219     19221     19216     19219     19222
     19217     19216     19218     19217     19216     19219     19218     19216     19219
     19219     19222     19223     19219     19222     19224     19219     19222     19225
     19220     19219     19221     19220     19219     19222     19221     19219     19222
     19222     19225     19226     19222     19225     19227     19222     19225     19228
     19223     19222     19224     19223     19222     19225     19224     19222     19225
     19225     19228     19229     19225     19228     19230     19225     19228     19231
     19226     19225     19227     19226     19225     19228     19227     19225     19228
     19228     19231     19232     19228     19231     19233     19228     19231     19234
     19229     19228     19230     19229     19228     19231     19230     19228     19231
     19231     19234     19235     19231     19234     19236     19231     19234     19237
     19232     19231     19233     19232     19231     19234     19233     19231     19234
     19234     19237     19238     19234     19237     19239     19234     19237     19240
     19235     19234     19236     19235     19234     19237     19236     19234     19237
     19237     19240     19241     19237     19240     19242     19237     19240     19243
     19238     19237     19239     19238     19237     19240     19239     19237     19240
     19240     19243     19244     19240     19243     19245     19240     19243     19246
     19241     19240     19242     19241     19240     19243     19242     19240     19243
     19243     19246     19247     19243     19246     19248     19243     19246     19249
     19244     19243     19245     19244     19243     19246     19245     19243     19246
     19246     19249     19250     19246     19249     19251     19246     19249     19252
     19247     19246     19248     19247     19246     19249     19248     19246     19249
     19250     19249     19251     19250     19249     19252     19251     19249     19252
     19253     19255     19256     19253     19257     19258     19253     19257     19259
     19253     19257     19260     19253     19299     19296     19253     19299     19300
     19253     19299     19301     19254     19253     19255     19254     19253     19257
     19254     19253     19299     19255     19253     19257     19255     19253     19299
     19257     19253     19299     19257     19260     19261     19257     19260     19291
     19258     19257     19259     19258     19257     19260     19259     19257     19260
     19260     19261     19262     19260     19261     19263     19260     19291     19289
     19260     19291     19292     19260     19291     19296     19261     19260     19291
     19261     19263     19264     19261     19263     19265     19261     19263     19266
     19262     19261     19263     19263     19266     19267     19263     19266     19268
     19263     19266     19289     19264     19263     19265     19264     19263     19266
     19265     19263     19266     19266     19268     19269     19266     19268     19270
     19266     19268     19278     19266     19289     19286     19266     19289     19290
     19266     19289     19291     19267     19266     19268     19267     19266     19289
     19268     19266     19289     19268     19270     19271     19268     19270     19272
     19268     19270     19273     19268     19278     19276     19268     19278     19279
     19268     19278     19283     19269     19268     19270     19269     19268     19278
     19270     19268     19278     19270     19273     19274     19270     19273     19275
     19270     19273     19276     19271     19270     19272     19271     19270     19273
     19272     19270     19273     19273     19276     19277     19273     19276     19278
     19273     19276     19302     19274     19273     19275     19274     19273     19276
     19275     19273     19276     19276     19278     19279     19276     19278     19283
     19276     19302     19303     19276     19302     19304     19276     19302     19308
     19277     19276     19278     19277     19276     19302     19278     19276     19302
     19278     19279     19280     19278     19279     19281     19278     19279     19282
     19278     19283     19284     19278     19283     19285     19278     19283     19286
     19279     19278     19283     19280     19279     19281     19280     19279     19282
     19281     19279     19282     19283     19286     19287     19283     19286     19288
     19283     19286     19289     19284     19283     19285     19284     19283     19286
     19285     19283     19286     19286     19289     19290     19286     19289     19291
     19287     19286     19288     19287     19286     19289     19288     19286     19289
     19289     19291     19292     19289     19291     19296     19290     19289     19291
     19291     19292     19293     19291     19292     19294     19291     19292     19295
     19291     19296     19297     19291     19296     19298     19291     19296     19299
     19292     19291     19296     19293     19292     19294     19293     19292     19295
     19294     19292     19295     19296     19299     19300     19296     19299     19301
     19297     19296     19298     19297     19296     19299     19298     19296     19299
     19300     19299     19301     19302     19304     19305     19302     19304     19306
     19302     19304     19307     19302     19308     19309     19302     19308     19310
     19302     19308     19311     19303     19302     19304     19303     19302     19308
     19304     19302     19308     19305     19304     19306     19305     19304     19307
     19306     19304     19307     19308     19311     19312     19308     19311     19313
     19308     19311     19314     19309     19308     19310     19309     19308     19311
     19310     19308     19311     19311     19314     19315     19311     19314     19316
     19311     19314     19317     19312     19311     19313     19312     19311     19314
     19313     19311     19314     19314     19317     19318     19314     19317     19319
     19314     19317     19323     19315     19314     19316     19315     19314     19317
     19316     19314     19317     19317     19319     19320     19317     19319     19321
     19317     19319     19322     19317     19323     19324     19317     19323     19325
     19317     19323     19326     19318     19317     19319     19318     19317     19323
     19319     19317     19323     19320     19319     19321     19320     19319     19322
     19321     19319     19322     19324     19323     19325     19324     19323     19326
     19325     19323     19326     19327     19331     19332     19327     19331     19333
     19327     19331     19334     19328     19327     19329     19328     19327     19330
     19328     19327     19331     19329     19327     19330     19329     19327     19331
     19330     19327     19331     19331     19334     19335     19331     19334     19336
     19331     19334     19340     19332     19331     19333     19332     19331     19334
     19333     19331     19334     19334     19340     19337     19335     19334     19336
     19335     19334     19340     19336     19334     19340     19337     19341     19342
     19338     19337     19339     19338     19337     19340     19338     19337     19341
     19339     19337     19340     19339     19337     19341     19340     19337     19341
     19341     19342     19343     19341     19342     19344     19341     19342     19345
     19342     19345     19346     19342     19345     19347     19342     19345     19353
     19343     19342     19344     19343     19342     19345     19344     19342     19345
     19345     19347     19348     19345     19353     19354     19345     19353     19355
     19345     19353     19356     19346     19345     19347     19346     19345     19353
     19347     19345     19353     19347     19348     19349     19347     19348     19350
     19348     19350     19351     19348     19350     19352     19348     19350     19362
     19349     19348     19350     19350     19362     19363     19350     19362     19364
     19350     19362     19365     19351     19350     19352     19351     19350     19362
     19352     19350     19362     19353     19356     19357     19354     19353     19355
     19354     19353     19356     19355     19353     19356     19356     19357     19358
     19356     19357     19359     19357     19359     19360     19357     19359     19361
     19357     19359     19409     19358     19357     19359     19359     19409     19410
     19359     19409     19411     19359     19409     19412     19360     19359     19361
     19360     19359     19409     19361     19359     19409     19362     19365     19366
     19362     19365     19367     19362     19365     19368     19363     19362     19364
     19363     19362     19365     19364     19362     19365     19365     19368     19369
     19365     19368     19370     19365     19368     19371     19366     19365     19367
     19366     19365     19368     19367     19365     19368     19368     19371     19372
     19368     19371     19373     19368     19371     19374     19369     19368     19370
     19369     19368     19371     19370     19368     19371     19371     19374     19375
     19371     19374     19376     19371     19374     19377     19372     19371     19373
     19372     19371     19374     19373     19371     19374     19374     19377     19378
     19374     19377     19379     19374     19377     19380     19375     19374     19376
     19375     19374     19377     19376     19374     19377     19377     19380     19381
     19377     19380     19382     19378     19377     19379     19378     19377     19380
     19379     19377     19380     19380     19382     19383     19380     19382     19384
     19381     19380     19382     19382     19384     19385     19382     19384     19386
     19382     19384     19387     19383     19382     19384     19384     19387     19388
     19384     19387     19389     19384     19387     19390     19385     19384     19386
     19385     19384     19387     19386     19384     19387     19387     19390     19391
     19387     19390     19392     19387     19390     19393     19388     19387     19389
     19388     19387     19390     19389     19387     19390     19390     19393     19394
     19390     19393     19395     19390     19393     19396     19391     19390     19392
     19391     19390     19393     19392     19390     19393     19393     19396     19397
     19393     19396     19398     19393     19396     19399     19394     19393     19395
     19394     19393     19396     19395     19393     19396     19396     19399     19400
     19396     19399     19401     19396     19399     19402     19397     19396     19398
     19397     19396     19399     19398     19396     19399     19399     19402     19403
     19399     19402     19404     19399     19402     19405     19400     19399     19401
     19400     19399     19402     19401     19399     19402     19402     19405     19406
     19402     19405     19407     19402     19405     19408     19403     19402     19404
     19403     19402     19405     19404     19402     19405     19406     19405     19407
     19406     19405     19408     19407     19405     19408     19409     19412     19413
     19409     19412     19414     19409     19412     19415     19410     19409     19411
     19410     19409     19412     19411     19409     19412     19412     19415     19416
     19412     19415     19417     19412     19415     19418     19413     19412     19414
     19413     19412     19415     19414     19412     19415     19415     19418     19419
     19415     19418     19420     19415     19418     19421     19416     19415     19417
     19416     19415     19418     19417     19415     19418     19418     19421     19422
     19418     19421     19423     19418     19421     19424     19419     19418     19420
     19419     19418     19421     19420     19418     19421     19421     19424     19425
     19421     19424     19426     19421     19424     19427     19422     19421     19423
     19422     19421     19424     19423     19421     19424     19424     19427     19428
     19424     19427     19429     19424     19427     19430     19425     19424     19426
     19425     19424     19427     19426     19424     19427     19427     19430     19431
     19427     19430     19432     19427     19430     19433     19428     19427     19429
     19428     19427     19430     19429     19427     19430     19430     19433     19434
     19430     19433     19435     19430     19433     19436     19431     19430     19432
     19431     19430     19433     19432     19430     19433     19433     19436     19437
     19433     19436     19438     19433     19436     19439     19434     19433     19435
     19434     19433     19436     19435     19433     19436     19436     19439     19440
     19436     19439     19441     19436     19439     19442     19437     19436     19438
     19437     19436     19439     19438     19436     19439     19439     19442     19443
     19439     19442     19444     19439     19442     19445     19440     19439     19441
     19440     19439     19442     19441     19439     19442     19442     19445     19446
     19442     19445     19447     19442     19445     19448     19443     19442     19444
     19443     19442     19445     19444     19442     19445     19445     19448     19449
     19445     19448     19450     19445     19448     19451     19446     19445     19447
     19446     19445     19448     19447     19445     19448     19448     19451     19452
     19448     19451     19453     19448     19451     19454     19449     19448     19450
     19449     19448     19451     19450     19448     19451     19451     19454     19455
     19451     19454     19456     19451     19454     19457     19452     19451     19453
     19452     19451     19454     19453     19451     19454     19455     19454     19456
     19455     19454     19457     19456     19454     19457     19458     19462     19463
     19458     19462     19464     19458     19462     19467     19459     19458     19460
     19459     19458     19461     19459     19458     19462     19460     19458     19461
     19460     19458     19462     19461     19458     19462     19462     19464     19465
     19462     19464     19466     19462     19467     19468     19462     19467     19469
     19462     19467     19473     19463     19462     19464     19463     19462     19467
     19464     19462     19467     19465     19464     19466     19467     19473     19470
     19468     19467     19469     19468     19467     19473     19469     19467     19473
     19470     19474     19475     19471     19470     19472     19471     19470     19473
     19471     19470     19474     19472     19470     19473     19472     19470     19474
     19473     19470     19474     19474     19475     19476     19474     19475     19477
     19474     19475     19478     19475     19478     19479     19475     19478     19480
     19475     19478     19486     19476     19475     19477     19476     19475     19478
     19477     19475     19478     19478     19480     19481     19478     19486     19487
     19478     19486     19488     19478     19486     19489     19479     19478     19480
     19479     19478     19486     19480     19478     19486     19480     19481     19482
     19480     19481     19483     19481     19483     19484     19481     19483     19485
     19481     19483     19495     19482     19481     19483     19483     19495     19496
     19483     19495     19497     19483     19495     19498     19484     19483     19485
     19484     19483     19495     19485     19483     19495     19486     19489     19490
     19487     19486     19488     19487     19486     19489     19488     19486     19489
     19489     19490     19491     19489     19490     19492     19490     19492     19493
     19490     19492     19494     19490     19492     19542     19491     19490     19492
     19492     19542     19543     19492     19542     19544     19492     19542     19545
     19493     19492     19494     19493     19492     19542     19494     19492     19542
     19495     19498     19499     19495     19498     19500     19495     19498     19501
     19496     19495     19497     19496     19495     19498     19497     19495     19498
     19498     19501     19502     19498     19501     19503     19499     19498     19500
     19499     19498     19501     19500     19498     19501     19501     19503     19504
     19501     19503     19505     19502     19501     19503     19503     19505     19506
     19503     19505     19507     19503     19505     19508     19504     19503     19505
     19505     19508     19509     19505     19508     19510     19506     19505     19507
     19506     19505     19508     19507     19505     19508     19508     19510     19511
     19508     19510     19512     19509     19508     19510     19510     19512     19513
     19510     19512     19514     19510     19512     19515     19511     19510     19512
     19512     19515     19516     19512     19515     19517     19513     19512     19514
     19513     19512     19515     19514     19512     19515     19515     19517     19518
     19515     19517     19519     19516     19515     19517     19517     19519     19520
     19517     19519     19521     19517     19519     19522     19518     19517     19519
     19519     19522     19523     19519     19522     19524     19520     19519     19521
     19520     19519     19522     19521     19519     19522     19522     19524     19525
     19522     19524     19526     19523     19522     19524     19524     19526     19527
     19524     19526     19528     19524     19526     19529     19525     19524     19526
     19526     19529     19530     19526     19529     19531     19526     19529     19532
     19527     19526     19528     19527     19526     19529     19528     19526     19529
     19529     19532     19533     19529     19532     19534     19529     19532     19535
     19530     19529     19531     19530     19529     19532     19531     19529     19532
     19532     19535     19536     19532     19535     19537     19532     19535     19538
     19533     19532     19534     19533     19532     19535     19534     19532     19535
     19535     19538     19539     19535     19538     19540     19535     19538     19541
     19536     19535     19537     19536     19535     19538     19537     19535     19538
     19539     19538     19540     19539     19538     19541     19540     19538     19541
     19542     19545     19546     19542     19545     19547     19542     19545     19548
     19543     19542     19544     19543     19542     19545     19544     19542     19545
     19545     19548     19549     19545     19548     19550     19545     19548     19551
     19546     19545     19547     19546     19545     19548     19547     19545     19548
     19548     19551     19552     19548     19551     19553     19548     19551     19554
     19549     19548     19550     19549     19548     19551     19550     19548     19551
     19551     19554     19555     19551     19554     19556     19551     19554     19557
     19552     19551     19553     19552     19551     19554     19553     19551     19554
     19554     19557     19558     19554     19557     19559     19554     19557     19560
     19555     19554     19556     19555     19554     19557     19556     19554     19557
     19557     19560     19561     19557     19560     19562     19557     19560     19563
     19558     19557     19559     19558     19557     19560     19559     19557     19560
     19560     19563     19564     19560     19563     19565     19560     19563     19566
     19561     19560     19562     19561     19560     19563     19562     19560     19563
     19563     19566     19567     19563     19566     19568     19563     19566     19569
     19564     19563     19565     19564     19563     19566     19565     19563     19566
     19566     19569     19570     19566     19569     19571     19566     19569     19572
     19567     19566     19568     19567     19566     19569     19568     19566     19569
     19569     19572     19573     19569     19572     19574     19569     19572     19575
     19570     19569     19571     19570     19569     19572     19571     19569     19572
     19572     19575     19576     19572     19575     19577     19572     19575     19578
     19573     19572     19574     19573     19572     19575     19574     19572     19575
     19575     19578     19579     19575     19578     19580     19575     19578     19581
     19576     19575     19577     19576     19575     19578     19577     19575     19578
     19578     19581     19582     19578     19581     19583     19578     19581     19584
     19579     19578     19580     19579     19578     19581     19580     19578     19581
     19581     19584     19585     19581     19584     19586     19581     19584     19587
     19582     19581     19583     19582     19581     19584     19583     19581     19584
     19584     19587     19588     19584     19587     19589     19584     19587     19590
     19585     19584     19586     19585     19584     19587     19586     19584     19587
     19588     19587     19589     19588     19587     19590     19589     19587     19590
     19591     19592     19593     19591     19592     19594     19591     19592     19595
     19591     19596     19597     19591     19596     19598     19591     19596     19599
     19591     19600     19601     19591     19600     19602     19591     19600     19603
     19591     19604     19605     19591     19604     19606     19591     19604     19607
     19592     19591     19596     19592     19591     19600     19592     19591     19604
     19593     19592     19594     19593     19592     19595     19594     19592     19595
     19596     19591     19600     19596     19591     19604     19597     19596     19598
     19597     19596     19599     19598     19596     19599     19600     19591     19604
     19601     19600     19602     19601     19600     19603     19602     19600     19603
     19604     19607     19608     19604     19607     19609     19604     19607     19614
     19605     19604     19606     19605     19604     19607     19606     19604     19607
     19607     19614     19610     19608     19607     19609     19608     19607     19614
     19609     19607     19614     19610     19613     19615     19611     19610     19612
     19611     19610     19613     19611     19610     19614     19612     19610     19613
     19612     19610     19614     19613     19610     19614     19613     19615     19616
     19613     19615     19617     19613     19615     19620     19615     19620     19618
     19615     19620     19621     19615     19620     19622     19616     19615     19617
     19616     19615     19620     19617     19615     19620     19618     19620     19621
     19618     19620     19622     19618     19670     19671     19618     19670     19672
     19619     19618     19620     19619     19618     19670     19620     19618     19670
     19620     19622     19623     19620     19622     19624     19620     19622     19626
     19621     19620     19622     19622     19624     19625     19622     19626     19627
     19622     19626     19628     19623     19622     19624     19623     19622     19626
     19624     19622     19626     19626     19628     19629     19626     19628     19630
     19627     19626     19628     19628     19630     19631     19628     19630     19632
     19628     19630     19633     19629     19628     19630     19630     19633     19634
     19630     19633     19635     19630     19633     19636     19631     19630     19632
     19631     19630     19633     19632     19630     19633     19633     19636     19637
     19633     19636     19638     19633     19636     19639     19634     19633     19635
     19634     19633     19636     19635     19633     19636     19636     19639     19640
     19636     19639     19641     19636     19639     19642     19637     19636     19638
     19637     19636     19639     19638     19636     19639     19639     19642     19643
     19639     19642     19644     19639     19642     19645     19640     19639     19641
     19640     19639     19642     19641     19639     19642     19642     19645     19646
     19642     19645     19647     19642     19645     19648     19643     19642     19644
     19643     19642     19645     19644     19642     19645     19645     19648     19649
     19645     19648     19650     19645     19648     19651     19646     19645     19647
     19646     19645     19648     19647     19645     19648     19648     19651     19652
     19648     19651     19653     19648     19651     19654     19649     19648     19650
     19649     19648     19651     19650     19648     19651     19651     19654     19655
     19651     19654     19656     19651     19654     19657     19652     19651     19653
     19652     19651     19654     19653     19651     19654     19654     19657     19658
     19654     19657     19659     19654     19657     19660     19655     19654     19656
     19655     19654     19657     19656     19654     19657     19657     19660     19661
     19657     19660     19662     19657     19660     19663     19658     19657     19659
     19658     19657     19660     19659     19657     19660     19660     19663     19664
     19660     19663     19665     19660     19663     19666     19661     19660     19662
     19661     19660     19663     19662     19660     19663     19663     19666     19667
     19663     19666     19668     19663     19666     19669     19664     19663     19665
     19664     19663     19666     19665     19663     19666     19667     19666     19668
     19667     19666     19669     19668     19666     19669     19670     19672     19673
     19670     19672     19674     19670     19672     19675     19671     19670     19672
     19672     19675     19676     19672     19675     19677     19672     19675     19678
     19673     19672     19674     19673     19672     19675     19674     19672     19675
     19675     19678     19679     19675     19678     19680     19675     19678     19681
     19676     19675     19677     19676     19675     19678     19677     19675     19678
     19678     19681     19682     19678     19681     19683     19678     19681     19684
     19679     19678     19680     19679     19678     19681     19680     19678     19681
     19681     19684     19685     19681     19684     19686     19681     19684     19687
     19682     19681     19683     19682     19681     19684     19683     19681     19684
     19684     19687     19688     19684     19687     19689     19684     19687     19690
     19685     19684     19686     19685     19684     19687     19686     19684     19687
     19687     19690     19691     19687     19690     19692     19687     19690     19693
     19688     19687     19689     19688     19687     19690     19689     19687     19690
     19690     19693     19694     19690     19693     19695     19691     19690     19692
     19691     19690     19693     19692     19690     19693     19693     19695     19696
     19693     19695     19697     19694     19693     19695     19695     19697     19698
     19695     19697     19699     19695     19697     19700     19696     19695     19697
     19697     19700     19701     19697     19700     19702     19697     19700     19703
     19698     19697     19699     19698     19697     19700     19699     19697     19700
     19700     19703     19704     19700     19703     19705     19700     19703     19706
     19701     19700     19702     19701     19700     19703     19702     19700     19703
     19703     19706     19707     19703     19706     19708     19703     19706     19709
     19704     19703     19705     19704     19703     19706     19705     19703     19706
     19706     19709     19710     19706     19709     19711     19706     19709     19712
     19707     19706     19708     19707     19706     19709     19708     19706     19709
     19709     19712     19713     19709     19712     19714     19709     19712     19715
     19710     19709     19711     19710     19709     19712     19711     19709     19712
     19712     19715     19716     19712     19715     19717     19712     19715     19718
     19713     19712     19714     19713     19712     19715     19714     19712     19715
     19715     19718     19719     19715     19718     19720     19715     19718     19721
     19716     19715     19717     19716     19715     19718     19717     19715     19718
     19719     19718     19720     19719     19718     19721     19720     19718     19721
     19722     19724     19725     19722     19726     19727     19722     19726     19728
     19722     19726     19729     19722     19768     19765     19722     19768     19769
     19722     19768     19770     19723     19722     19724     19723     19722     19726
     19723     19722     19768     19724     19722     19726     19724     19722     19768
     19726     19722     19768     19726     19729     19730     19726     19729     19760
     19727     19726     19728     19727     19726     19729     19728     19726     19729
     19729     19730     19731     19729     19730     19732     19729     19760     19758
     19729     19760     19761     19729     19760     19765     19730     19729     19760
     19730     19732     19733     19730     19732     19734     19730     19732     19735
     19731     19730     19732     19732     19735     19736     19732     19735     19737
     19732     19735     19758     19733     19732     19734     19733     19732     19735
     19734     19732     19735     19735     19737     19738     19735     19737     19739
     19735     19737     19747     19735     19758     19755     19735     19758     19759
     19735     19758     19760     19736     19735     19737     19736     19735     19758
     19737     19735     19758     19737     19739     19740     19737     19739     19741
     19737     19739     19742     19737     19747     19745     19737     19747     19748
     19737     19747     19752     19738     19737     19739     19738     19737     19747
     19739     19737     19747     19739     19742     19743     19739     19742     19744
     19739     19742     19745     19740     19739     19741     19740     19739     19742
     19741     19739     19742     19742     19745     19746     19742     19745     19747
     19742     19745     19771     19743     19742     19744     19743     19742     19745
     19744     19742     19745     19745     19747     19748     19745     19747     19752
     19745     19771     19772     19745     19771     19773     19745     19771     19777
     19746     19745     19747     19746     19745     19771     19747     19745     19771
     19747     19748     19749     19747     19748     19750     19747     19748     19751
     19747     19752     19753     19747     19752     19754     19747     19752     19755
     19748     19747     19752     19749     19748     19750     19749     19748     19751
     19750     19748     19751     19752     19755     19756     19752     19755     19757
     19752     19755     19758     19753     19752     19754     19753     19752     19755
     19754     19752     19755     19755     19758     19759     19755     19758     19760
     19756     19755     19757     19756     19755     19758     19757     19755     19758
     19758     19760     19761     19758     19760     19765     19759     19758     19760
     19760     19761     19762     19760     19761     19763     19760     19761     19764
     19760     19765     19766     19760     19765     19767     19760     19765     19768
     19761     19760     19765     19762     19761     19763     19762     19761     19764
     19763     19761     19764     19765     19768     19769     19765     19768     19770
     19766     19765     19767     19766     19765     19768     19767     19765     19768
     19769     19768     19770     19771     19773     19774     19771     19773     19775
     19771     19773     19776     19771     19777     19778     19771     19777     19779
     19771     19777     19780     19772     19771     19773     19772     19771     19777
     19773     19771     19777     19774     19773     19775     19774     19773     19776
     19775     19773     19776     19777     19780     19781     19777     19780     19782
     19777     19780     19783     19778     19777     19779     19778     19777     19780
     19779     19777     19780     19780     19783     19784     19780     19783     19785
     19780     19783     19786     19781     19780     19782     19781     19780     19783
     19782     19780     19783     19783     19786     19787     19783     19786     19788
     19783     19786     19792     19784     19783     19785     19784     19783     19786
     19785     19783     19786     19786     19788     19789     19786     19788     19790
     19786     19788     19791     19786     19792     19793     19786     19792     19794
     19786     19792     19795     19787     19786     19788     19787     19786     19792
     19788     19786     19792     19789     19788     19790     19789     19788     19791
     19790     19788     19791     19793     19792     19794     19793     19792     19795
     19794     19792     19795     19796     19798     19799     19796     19800     19801
     19796     19800     19802     19796     19800     19803     19796     19842     19839
     19796     19842     19843     19796     19842     19844     19797     19796     19798
     19797     19796     19800     19797     19796     19842     19798     19796     19800
     19798     19796     19842     19800     19796     19842     19800     19803     19804
     19800     19803     19834     19801     19800     19802     19801     19800     19803
     19802     19800     19803     19803     19804     19805     19803     19804     19806
     19803     19834     19832     19803     19834     19835     19803     19834     19839
     19804     19803     19834     19804     19806     19807     19804     19806     19808
     19804     19806     19809     19805     19804     19806     19806     19809     19810
     19806     19809     19811     19806     19809     19832     19807     19806     19808
     19807     19806     19809     19808     19806     19809     19809     19811     19812
     19809     19811     19813     19809     19811     19821     19809     19832     19829
     19809     19832     19833     19809     19832     19834     19810     19809     19811
     19810     19809     19832     19811     19809     19832     19811     19813     19814
     19811     19813     19815     19811     19813     19816     19811     19821     19819
     19811     19821     19822     19811     19821     19826     19812     19811     19813
     19812     19811     19821     19813     19811     19821     19813     19816     19817
     19813     19816     19818     19813     19816     19819     19814     19813     19815
     19814     19813     19816     19815     19813     19816     19816     19819     19820
     19816     19819     19821     19816     19819     19845     19817     19816     19818
     19817     19816     19819     19818     19816     19819     19819     19821     19822
     19819     19821     19826     19819     19845     19846     19819     19845     19847
     19819     19845     19851     19820     19819     19821     19820     19819     19845
     19821     19819     19845     19821     19822     19823     19821     19822     19824
     19821     19822     19825     19821     19826     19827     19821     19826     19828
     19821     19826     19829     19822     19821     19826     19823     19822     19824
     19823     19822     19825     19824     19822     19825     19826     19829     19830
     19826     19829     19831     19826     19829     19832     19827     19826     19828
     19827     19826     19829     19828     19826     19829     19829     19832     19833
     19829     19832     19834     19830     19829     19831     19830     19829     19832
     19831     19829     19832     19832     19834     19835     19832     19834     19839
     19833     19832     19834     19834     19835     19836     19834     19835     19837
     19834     19835     19838     19834     19839     19840     19834     19839     19841
     19834     19839     19842     19835     19834     19839     19836     19835     19837
     19836     19835     19838     19837     19835     19838     19839     19842     19843
     19839     19842     19844     19840     19839     19841     19840     19839     19842
     19841     19839     19842     19843     19842     19844     19845     19847     19848
     19845     19847     19849     19845     19847     19850     19845     19851     19852
     19845     19851     19853     19845     19851     19854     19846     19845     19847
     19846     19845     19851     19847     19845     19851     19848     19847     19849
     19848     19847     19850     19849     19847     19850     19851     19854     19855
     19851     19854     19856     19851     19854     19857     19852     19851     19853
     19852     19851     19854     19853     19851     19854     19854     19857     19858
     19854     19857     19859     19854     19857     19860     19855     19854     19856
     19855     19854     19857     19856     19854     19857     19857     19860     19861
     19857     19860     19862     19857     19860     19866     19858     19857     19859
     19858     19857     19860     19859     19857     19860     19860     19862     19863
     19860     19862     19864     19860     19862     19865     19860     19866     19867
     19860     19866     19868     19860     19866     19869     19861     19860     19862
     19861     19860     19866     19862     19860     19866     19863     19862     19864
     19863     19862     19865     19864     19862     19865     19867     19866     19868
     19867     19866     19869     19868     19866     19869     19870     19871     19872
     19870     19871     19873     19870     19871     19886     19870     19874     19875
     19870     19874     19876     19870     19874     19877     19870     19878     19879
     19870     19878     19880     19870     19878     19881     19870     19882     19883
     19870     19882     19884     19870     19882     19885     19871     19870     19874
     19871     19870     19878     19871     19870     19882     19871     19886     19887
     19871     19886     19888     19871     19886     19892     19872     19871     19873
     19872     19871     19886     19873     19871     19886     19874     19870     19878
     19874     19870     19882     19875     19874     19876     19875     19874     19877
     19876     19874     19877     19878     19870     19882     19879     19878     19880
     19879     19878     19881     19880     19878     19881     19883     19882     19884
     19883     19882     19885     19884     19882     19885     19886     19892     19889
     19887     19886     19888     19887     19886     19892     19888     19886     19892
     19889     19893     19894     19890     19889     19891     19890     19889     19892
     19890     19889     19893     19891     19889     19892     19891     19889     19893
     19892     19889     19893     19893     19894     19895     19893     19894     19896
     19893     19894     19897     19894     19897     19898     19894     19897     19899
     19894     19897     19905     19895     19894     19896     19895     19894     19897
     19896     19894     19897     19897     19899     19900     19897     19905     19906
     19897     19905     19907     19897     19905     19908     19898     19897     19899
     19898     19897     19905     19899     19897     19905     19899     19900     19901
     19899     19900     19902     19900     19902     19903     19900     19902     19904
     19900     19902     19914     19901     19900     19902     19902     19914     19915
     19902     19914     19916     19902     19914     19917     19903     19902     19904
     19903     19902     19914     19904     19902     19914     19905     19908     19909
     19906     19905     19907     19906     19905     19908     19907     19905     19908
     19908     19909     19910     19908     19909     19911     19909     19911     19912
     19909     19911     19913     19909     19911     19961     19910     19909     19911
     19911     19961     19962     19911     19961     19963     19911     19961     19964
     19912     19911     19913     19912     19911     19961     19913     19911     19961
     19914     19917     19918     19914     19917     19919     19914     19917     19920
     19915     19914     19916     19915     19914     19917     19916     19914     19917
     19917     19920     19921     19917     19920     19922     19918     19917     19919
     19918     19917     19920     19919     19917     19920     19920     19922     19923
     19920     19922     19924     19921     19920     19922     19922     19924     19925
     19922     19924     19926     19922     19924     19927     19923     19922     19924
     19924     19927     19928     19924     19927     19929     19925     19924     19926
     19925     19924     19927     19926     19924     19927     19927     19929     19930
     19927     19929     19931     19928     19927     19929     19929     19931     19932
     19929     19931     19933     19929     19931     19934     19930     19929     19931
     19931     19934     19935     19931     19934     19936     19932     19931     19933
     19932     19931     19934     19933     19931     19934     19934     19936     19937
     19934     19936     19938     19935     19934     19936     19936     19938     19939
     19936     19938     19940     19936     19938     19941     19937     19936     19938
     19938     19941     19942     19938     19941     19943     19939     19938     19940
     19939     19938     19941     19940     19938     19941     19941     19943     19944
     19941     19943     19945     19942     19941     19943     19943     19945     19946
     19943     19945     19947     19943     19945     19948     19944     19943     19945
     19945     19948     19949     19945     19948     19950     19945     19948     19951
     19946     19945     19947     19946     19945     19948     19947     19945     19948
     19948     19951     19952     19948     19951     19953     19948     19951     19954
     19949     19948     19950     19949     19948     19951     19950     19948     19951
     19951     19954     19955     19951     19954     19956     19951     19954     19957
     19952     19951     19953     19952     19951     19954     19953     19951     19954
     19954     19957     19958     19954     19957     19959     19954     19957     19960
     19955     19954     19956     19955     19954     19957     19956     19954     19957
     19958     19957     19959     19958     19957     19960     19959     19957     19960
     19961     19964     19965     19961     19964     19966     19961     19964     19967
     19962     19961     19963     19962     19961     19964     19963     19961     19964
     19964     19967     19968     19964     19967     19969     19964     19967     19970
     19965     19964     19966     19965     19964     19967     19966     19964     19967
     19967     19970     19971     19967     19970     19972     19967     19970     19973
     19968     19967     19969     19968     19967     19970     19969     19967     19970
     19970     19973     19974     19970     19973     19975     19970     19973     19976
     19971     19970     19972     19971     19970     19973     19972     19970     19973
     19973     19976     19977     19973     19976     19978     19973     19976     19979
     19974     19973     19975     19974     19973     19976     19975     19973     19976
     19976     19979     19980     19976     19979     19981     19976     19979     19982
     19977     19976     19978     19977     19976     19979     19978     19976     19979
     19979     19982     19983     19979     19982     19984     19979     19982     19985
     19980     19979     19981     19980     19979     19982     19981     19979     19982
     19982     19985     19986     19982     19985     19987     19982     19985     19988
     19983     19982     19984     19983     19982     19985     19984     19982     19985
     19985     19988     19989     19985     19988     19990     19985     19988     19991
     19986     19985     19987     19986     19985     19988     19987     19985     19988
     19988     19991     19992     19988     19991     19993     19988     19991     19994
     19989     19988     19990     19989     19988     19991     19990     19988     19991
     19991     19994     19995     19991     19994     19996     19991     19994     19997
     19992     19991     19993     19992     19991     19994     19993     19991     19994
     19994     19997     19998     19994     19997     19999     19994     19997     20000
     19995     19994     19996     19995     19994     19997     19996     19994     19997
     19997     20000     20001     19997     20000     20002     19997     20000     20003
     19998     19997     19999     19998     19997     20000     19999     19997     20000
     20000     20003     20004     20000     20003     20005     20000     20003     20006
     20001     20000     20002     20001     20000     20003     20002     20000     20003
     20003     20006     20007     20003     20006     20008     20003     20006     20009
     20004     20003     20005     20004     20003     20006     20005     20003     20006
     20007     20006     20008     20007     20006     20009     20008     20006     20009
     20010     20014     20015     20010     20014     20016     20010     20014     20017
     20011     20010     20012     20011     20010     20013     20011     20010     20014
     20012     20010     20013     20012     20010     20014     20013     20010     20014
     20014     20017     20018     20014     20017     20019     20014     20017     20023
     20015     20014     20016     20015     20014     20017     20016     20014     20017
     20017     20023     20020     20018     20017     20019     20018     20017     20023
     20019     20017     20023     20020     20024     20025     20021     20020     20022
     20021     20020     20023     20021     20020     20024     20022     20020     20023
     20022     20020     20024     20023     20020     20024     20024     20025     20026
     20024     20025     20027     20024     20025     20028     20025     20028     20029
     20025     20028     20030     20025     20028     20036     20026     20025     20027
     20026     20025     20028     20027     20025     20028     20028     20030     20031
     20028     20036     20037     20028     20036     20038     20028     20036     20039
     20029     20028     20030     20029     20028     20036     20030     20028     20036
     20030     20031     20032     20030     20031     20033     20031     20033     20034
     20031     20033     20035     20031     20033     20045     20032     20031     20033
     20033     20045     20046     20033     20045     20047     20033     20045     20048
     20034     20033     20035     20034     20033     20045     20035     20033     20045
     20036     20039     20040     20037     20036     20038     20037     20036     20039
     20038     20036     20039     20039     20040     20041     20039     20040     20042
     20040     20042     20043     20040     20042     20044     20040     20042     20092
     20041     20040     20042     20042     20092     20093     20042     20092     20094
     20042     20092     20095     20043     20042     20044     20043     20042     20092
     20044     20042     20092     20045     20048     20049     20045     20048     20050
     20045     20048     20051     20046     20045     20047     20046     20045     20048
     20047     20045     20048     20048     20051     20052     20048     20051     20053
     20049     20048     20050     20049     20048     20051     20050     20048     20051
     20051     20053     20054     20051     20053     20055     20052     20051     20053
     20053     20055     20056     20053     20055     20057     20053     20055     20058
     20054     20053     20055     20055     20058     20059     20055     20058     20060
     20056     20055     20057     20056     20055     20058     20057     20055     20058
     20058     20060     20061     20058     20060     20062     20059     20058     20060
     20060     20062     20063     20060     20062     20064     20060     20062     20065
     20061     20060     20062     20062     20065     20066     20062     20065     20067
     20063     20062     20064     20063     20062     20065     20064     20062     20065
     20065     20067     20068     20065     20067     20069     20066     20065     20067
     20067     20069     20070     20067     20069     20071     20067     20069     20072
     20068     20067     20069     20069     20072     20073     20069     20072     20074
     20070     20069     20071     20070     20069     20072     20071     20069     20072
     20072     20074     20075     20072     20074     20076     20073     20072     20074
     20074     20076     20077     20074     20076     20078     20074     20076     20079
     20075     20074     20076     20076     20079     20080     20076     20079     20081
     20076     20079     20082     20077     20076     20078     20077     20076     20079
     20078     20076     20079     20079     20082     20083     20079     20082     20084
     20079     20082     20085     20080     20079     20081     20080     20079     20082
     20081     20079     20082     20082     20085     20086     20082     20085     20087
     20082     20085     20088     20083     20082     20084     20083     20082     20085
     20084     20082     20085     20085     20088     20089     20085     20088     20090
     20085     20088     20091     20086     20085     20087     20086     20085     20088
     20087     20085     20088     20089     20088     20090     20089     20088     20091
     20090     20088     20091     20092     20095     20096     20092     20095     20097
     20092     20095     20098     20093     20092     20094     20093     20092     20095
     20094     20092     20095     20095     20098     20099     20095     20098     20100
     20095     20098     20101     20096     20095     20097     20096     20095     20098
     20097     20095     20098     20098     20101     20102     20098     20101     20103
     20098     20101     20104     20099     20098     20100     20099     20098     20101
     20100     20098     20101     20101     20104     20105     20101     20104     20106
     20101     20104     20107     20102     20101     20103     20102     20101     20104
     20103     20101     20104     20104     20107     20108     20104     20107     20109
     20104     20107     20110     20105     20104     20106     20105     20104     20107
     20106     20104     20107     20107     20110     20111     20107     20110     20112
     20107     20110     20113     20108     20107     20109     20108     20107     20110
     20109     20107     20110     20110     20113     20114     20110     20113     20115
     20110     20113     20116     20111     20110     20112     20111     20110     20113
     20112     20110     20113     20113     20116     20117     20113     20116     20118
     20113     20116     20119     20114     20113     20115     20114     20113     20116
     20115     20113     20116     20116     20119     20120     20116     20119     20121
     20116     20119     20122     20117     20116     20118     20117     20116     20119
     20118     20116     20119     20119     20122     20123     20119     20122     20124
     20119     20122     20125     20120     20119     20121     20120     20119     20122
     20121     20119     20122     20122     20125     20126     20122     20125     20127
     20122     20125     20128     20123     20122     20124     20123     20122     20125
     20124     20122     20125     20125     20128     20129     20125     20128     20130
     20125     20128     20131     20126     20125     20127     20126     20125     20128
     20127     20125     20128     20128     20131     20132     20128     20131     20133
     20128     20131     20134     20129     20128     20130     20129     20128     20131
     20130     20128     20131     20131     20134     20135     20131     20134     20136
     20131     20134     20137     20132     20131     20133     20132     20131     20134
     20133     20131     20134     20134     20137     20138     20134     20137     20139
     20134     20137     20140     20135     20134     20136     20135     20134     20137
     20136     20134     20137     20138     20137     20139     20138     20137     20140
     20139     20137     20140     20141     20142     20143     20141     20142     20144
     20141     20142     20145     20141     20146     20147     20141     20146     20148
     20141     20146     20149     20141     20150     20151     20141     20150     20152
     20141     20150     20153     20141     20154     20155     20141     20154     20156
     20141     20154     20157     20142     20141     20146     20142     20141     20150
     20142     20141     20154     20143     20142     20144     20143     20142     20145
     20144     20142     20145     20146     20141     20150     20146     20141     20154
     20147     20146     20148     20147     20146     20149     20148     20146     20149
     20150     20141     20154     20151     20150     20152     20151     20150     20153
     20152     20150     20153     20154     20157     20158     20154     20157     20159
     20154     20157     20164     20155     20154     20156     20155     20154     20157
     20156     20154     20157     20157     20164     20160     20158     20157     20159
     20158     20157     20164     20159     20157     20164     20160     20163     20165
     20161     20160     20162     20161     20160     20163     20161     20160     20164
     20162     20160     20163     20162     20160     20164     20163     20160     20164
     20163     20165     20166     20163     20165     20167     20163     20165     20170
     20165     20170     20168     20165     20170     20171     20165     20170     20172
     20166     20165     20167     20166     20165     20170     20167     20165     20170
     20168     20170     20171     20168     20170     20172     20168     20220     20221
     20168     20220     20222     20169     20168     20170     20169     20168     20220
     20170     20168     20220     20170     20172     20173     20170     20172     20174
     20170     20172     20176     20171     20170     20172     20172     20174     20175
     20172     20176     20177     20172     20176     20178     20173     20172     20174
     20173     20172     20176     20174     20172     20176     20176     20178     20179
     20176     20178     20180     20177     20176     20178     20178     20180     20181
     20178     20180     20182     20178     20180     20183     20179     20178     20180
     20180     20183     20184     20180     20183     20185     20180     20183     20186
     20181     20180     20182     20181     20180     20183     20182     20180     20183
     20183     20186     20187     20183     20186     20188     20183     20186     20189
     20184     20183     20185     20184     20183     20186     20185     20183     20186
     20186     20189     20190     20186     20189     20191     20186     20189     20192
     20187     20186     20188     20187     20186     20189     20188     20186     20189
     20189     20192     20193     20189     20192     20194     20189     20192     20195
     20190     20189     20191     20190     20189     20192     20191     20189     20192
     20192     20195     20196     20192     20195     20197     20192     20195     20198
     20193     20192     20194     20193     20192     20195     20194     20192     20195
     20195     20198     20199     20195     20198     20200     20195     20198     20201
     20196     20195     20197     20196     20195     20198     20197     20195     20198
     20198     20201     20202     20198     20201     20203     20198     20201     20204
     20199     20198     20200     20199     20198     20201     20200     20198     20201
     20201     20204     20205     20201     20204     20206     20201     20204     20207
     20202     20201     20203     20202     20201     20204     20203     20201     20204
     20204     20207     20208     20204     20207     20209     20204     20207     20210
     20205     20204     20206     20205     20204     20207     20206     20204     20207
     20207     20210     20211     20207     20210     20212     20207     20210     20213
     20208     20207     20209     20208     20207     20210     20209     20207     20210
     20210     20213     20214     20210     20213     20215     20210     20213     20216
     20211     20210     20212     20211     20210     20213     20212     20210     20213
     20213     20216     20217     20213     20216     20218     20213     20216     20219
     20214     20213     20215     20214     20213     20216     20215     20213     20216
     20217     20216     20218     20217     20216     20219     20218     20216     20219
     20220     20222     20223     20220     20222     20224     20220     20222     20225
     20221     20220     20222     20222     20225     20226     20222     20225     20227
     20222     20225     20228     20223     20222     20224     20223     20222     20225
     20224     20222     20225     20225     20228     20229     20225     20228     20230
     20225     20228     20231     20226     20225     20227     20226     20225     20228
     20227     20225     20228     20228     20231     20232     20228     20231     20233
     20228     20231     20234     20229     20228     20230     20229     20228     20231
     20230     20228     20231     20231     20234     20235     20231     20234     20236
     20231     20234     20237     20232     20231     20233     20232     20231     20234
     20233     20231     20234     20234     20237     20238     20234     20237     20239
     20234     20237     20240     20235     20234     20236     20235     20234     20237
     20236     20234     20237     20237     20240     20241     20237     20240     20242
     20237     20240     20243     20238     20237     20239     20238     20237     20240
     20239     20237     20240     20240     20243     20244     20240     20243     20245
     20241     20240     20242     20241     20240     20243     20242     20240     20243
     20243     20245     20246     20243     20245     20247     20244     20243     20245
     20245     20247     20248     20245     20247     20249     20245     20247     20250
     20246     20245     20247     20247     20250     20251     20247     20250     20252
     20247     20250     20253     20248     20247     20249     20248     20247     20250
     20249     20247     20250     20250     20253     20254     20250     20253     20255
     20250     20253     20256     20251     20250     20252     20251     20250     20253
     20252     20250     20253     20253     20256     20257     20253     20256     20258
     20253     20256     20259     20254     20253     20255     20254     20253     20256
     20255     20253     20256     20256     20259     20260     20256     20259     20261
     20256     20259     20262     20257     20256     20258     20257     20256     20259
     20258     20256     20259     20259     20262     20263     20259     20262     20264
     20259     20262     20265     20260     20259     20261     20260     20259     20262
     20261     20259     20262     20262     20265     20266     20262     20265     20267
     20262     20265     20268     20263     20262     20264     20263     20262     20265
     20264     20262     20265     20265     20268     20269     20265     20268     20270
     20265     20268     20271     20266     20265     20267     20266     20265     20268
     20267     20265     20268     20269     20268     20270     20269     20268     20271
     20270     20268     20271     20272     20276     20277     20272     20276     20278
     20272     20276     20279     20273     20272     20274     20273     20272     20275
     20273     20272     20276     20274     20272     20275     20274     20272     20276
     20275     20272     20276     20276     20279     20280     20276     20279     20281
     20276     20279     20285     20277     20276     20278     20277     20276     20279
     20278     20276     20279     20279     20285     20282     20280     20279     20281
     20280     20279     20285     20281     20279     20285     20282     20286     20287
     20283     20282     20284     20283     20282     20285     20283     20282     20286
     20284     20282     20285     20284     20282     20286     20285     20282     20286
     20286     20287     20288     20286     20287     20289     20286     20287     20290
     20287     20290     20291     20287     20290     20292     20287     20290     20298
     20288     20287     20289     20288     20287     20290     20289     20287     20290
     20290     20292     20293     20290     20298     20299     20290     20298     20300
     20290     20298     20301     20291     20290     20292     20291     20290     20298
     20292     20290     20298     20292     20293     20294     20292     20293     20295
     20293     20295     20296     20293     20295     20297     20293     20295     20307
     20294     20293     20295     20295     20307     20308     20295     20307     20309
     20295     20307     20310     20296     20295     20297     20296     20295     20307
     20297     20295     20307     20298     20301     20302     20299     20298     20300
     20299     20298     20301     20300     20298     20301     20301     20302     20303
     20301     20302     20304     20302     20304     20305     20302     20304     20306
     20302     20304     20354     20303     20302     20304     20304     20354     20355
     20304     20354     20356     20304     20354     20357     20305     20304     20306
     20305     20304     20354     20306     20304     20354     20307     20310     20311
     20307     20310     20312     20307     20310     20313     20308     20307     20309
     20308     20307     20310     20309     20307     20310     20310     20313     20314
     20310     20313     20315     20311     20310     20312     20311     20310     20313
     20312     20310     20313     20313     20315     20316     20313     20315     20317
     20314     20313     20315     20315     20317     20318     20315     20317     20319
     20315     20317     20320     20316     20315     20317     20317     20320     20321
     20317     20320     20322     20318     20317     20319     20318     20317     20320
     20319     20317     20320     20320     20322     20323     20320     20322     20324
     20321     20320     20322     20322     20324     20325     20322     20324     20326
     20322     20324     20327     20323     20322     20324     20324     20327     20328
     20324     20327     20329     20325     20324     20326     20325     20324     20327
     20326     20324     20327     20327     20329     20330     20327     20329     20331
     20328     20327     20329     20329     20331     20332     20329     20331     20333
     20329     20331     20334     20330     20329     20331     20331     20334     20335
     20331     20334     20336     20332     20331     20333     20332     20331     20334
     20333     20331     20334     20334     20336     20337     20334     20336     20338
     20335     20334     20336     20336     20338     20339     20336     20338     20340
     20336     20338     20341     20337     20336     20338     20338     20341     20342
     20338     20341     20343     20338     20341     20344     20339     20338     20340
     20339     20338     20341     20340     20338     20341     20341     20344     20345
     20341     20344     20346     20341     20344     20347     20342     20341     20343
     20342     20341     20344     20343     20341     20344     20344     20347     20348
     20344     20347     20349     20344     20347     20350     20345     20344     20346
     20345     20344     20347     20346     20344     20347     20347     20350     20351
     20347     20350     20352     20347     20350     20353     20348     20347     20349
     20348     20347     20350     20349     20347     20350     20351     20350     20352
     20351     20350     20353     20352     20350     20353     20354     20357     20358
     20354     20357     20359     20354     20357     20360     20355     20354     20356
     20355     20354     20357     20356     20354     20357     20357     20360     20361
     20357     20360     20362     20357     20360     20363     20358     20357     20359
     20358     20357     20360     20359     20357     20360     20360     20363     20364
     20360     20363     20365     20360     20363     20366     20361     20360     20362
     20361     20360     20363     20362     20360     20363     20363     20366     20367
     20363     20366     20368     20363     20366     20369     20364     20363     20365
     20364     20363     20366     20365     20363     20366     20366     20369     20370
     20366     20369     20371     20366     20369     20372     20367     20366     20368
     20367     20366     20369     20368     20366     20369     20369     20372     20373
     20369     20372     20374     20369     20372     20375     20370     20369     20371
     20370     20369     20372     20371     20369     20372     20372     20375     20376
     20372     20375     20377     20372     20375     20378     20373     20372     20374
     20373     20372     20375     20374     20372     20375     20375     20378     20379
     20375     20378     20380     20375     20378     20381     20376     20375     20377
     20376     20375     20378     20377     20375     20378     20378     20381     20382
     20378     20381     20383     20378     20381     20384     20379     20378     20380
     20379     20378     20381     20380     20378     20381     20381     20384     20385
     20381     20384     20386     20381     20384     20387     20382     20381     20383
     20382     20381     20384     20383     20381     20384     20384     20387     20388
     20384     20387     20389     20384     20387     20390     20385     20384     20386
     20385     20384     20387     20386     20384     20387     20387     20390     20391
     20387     20390     20392     20387     20390     20393     20388     20387     20389
     20388     20387     20390     20389     20387     20390     20390     20393     20394
     20390     20393     20395     20390     20393     20396     20391     20390     20392
     20391     20390     20393     20392     20390     20393     20393     20396     20397
     20393     20396     20398     20393     20396     20399     20394     20393     20395
     20394     20393     20396     20395     20393     20396     20396     20399     20400
     20396     20399     20401     20396     20399     20402     20397     20396     20398
     20397     20396     20399     20398     20396     20399     20400     20399     20401
     20400     20399     20402     20401     20399     20402     20403     20404     20405
     20403     20404     20406     20403     20404     20407     20403     20408     20409
     20403     20408     20410     20403     20408     20411     20403     20412     20413
     20403     20412     20414     20403     20412     20415     20403     20416     20417
     20403     20416     20418     20403     20416     20419     20404     20403     20408
     20404     20403     20412     20404     20403     20416     20405     20404     20406
     20405     20404     20407     20406     20404     20407     20408     20403     20412
     20408     20403     20416     20409     20408     20410     20409     20408     20411
     20410     20408     20411     20412     20403     20416     20413     20412     20414
     20413     20412     20415     20414     20412     20415     20416     20419     20420
     20416     20419     20421     20416     20419     20426     20417     20416     20418
     20417     20416     20419     20418     20416     20419     20419     20426     20422
     20420     20419     20421     20420     20419     20426     20421     20419     20426
     20422     20425     20427     20423     20422     20424     20423     20422     20425
     20423     20422     20426     20424     20422     20425     20424     20422     20426
     20425     20422     20426     20425     20427     20428     20425     20427     20429
     20425     20427     20432     20427     20432     20430     20427     20432     20433
     20427     20432     20434     20428     20427     20429     20428     20427     20432
     20429     20427     20432     20430     20432     20433     20430     20432     20434
     20430     20482     20483     20430     20482     20484     20431     20430     20432
     20431     20430     20482     20432     20430     20482     20432     20434     20435
     20432     20434     20436     20432     20434     20438     20433     20432     20434
     20434     20436     20437     20434     20438     20439     20434     20438     20440
     20435     20434     20436     20435     20434     20438     20436     20434     20438
     20438     20440     20441     20438     20440     20442     20439     20438     20440
     20440     20442     20443     20440     20442     20444     20440     20442     20445
     20441     20440     20442     20442     20445     20446     20442     20445     20447
     20442     20445     20448     20443     20442     20444     20443     20442     20445
     20444     20442     20445     20445     20448     20449     20445     20448     20450
     20445     20448     20451     20446     20445     20447     20446     20445     20448
     20447     20445     20448     20448     20451     20452     20448     20451     20453
     20448     20451     20454     20449     20448     20450     20449     20448     20451
     20450     20448     20451     20451     20454     20455     20451     20454     20456
     20451     20454     20457     20452     20451     20453     20452     20451     20454
     20453     20451     20454     20454     20457     20458     20454     20457     20459
     20454     20457     20460     20455     20454     20456     20455     20454     20457
     20456     20454     20457     20457     20460     20461     20457     20460     20462
     20457     20460     20463     20458     20457     20459     20458     20457     20460
     20459     20457     20460     20460     20463     20464     20460     20463     20465
     20460     20463     20466     20461     20460     20462     20461     20460     20463
     20462     20460     20463     20463     20466     20467     20463     20466     20468
     20463     20466     20469     20464     20463     20465     20464     20463     20466
     20465     20463     20466     20466     20469     20470     20466     20469     20471
     20466     20469     20472     20467     20466     20468     20467     20466     20469
     20468     20466     20469     20469     20472     20473     20469     20472     20474
     20469     20472     20475     20470     20469     20471     20470     20469     20472
     20471     20469     20472     20472     20475     20476     20472     20475     20477
     20472     20475     20478     20473     20472     20474     20473     20472     20475
     20474     20472     20475     20475     20478     20479     20475     20478     20480
     20475     20478     20481     20476     20475     20477     20476     20475     20478
     20477     20475     20478     20479     20478     20480     20479     20478     20481
     20480     20478     20481     20482     20484     20485     20482     20484     20486
     20482     20484     20487     20483     20482     20484     20484     20487     20488
     20484     20487     20489     20484     20487     20490     20485     20484     20486
     20485     20484     20487     20486     20484     20487     20487     20490     20491
     20487     20490     20492     20487     20490     20493     20488     20487     20489
     20488     20487     20490     20489     20487     20490     20490     20493     20494
     20490     20493     20495     20490     20493     20496     20491     20490     20492
     20491     20490     20493     20492     20490     20493     20493     20496     20497
     20493     20496     20498     20493     20496     20499     20494     20493     20495
     20494     20493     20496     20495     20493     20496     20496     20499     20500
     20496     20499     20501     20496     20499     20502     20497     20496     20498
     20497     20496     20499     20498     20496     20499     20499     20502     20503
     20499     20502     20504     20499     20502     20505     20500     20499     20501
     20500     20499     20502     20501     20499     20502     20502     20505     20506
     20502     20505     20507     20503     20502     20504     20503     20502     20505
     20504     20502     20505     20505     20507     20508     20505     20507     20509
     20506     20505     20507     20507     20509     20510     20507     20509     20511
     20507     20509     20512     20508     20507     20509     20509     20512     20513
     20509     20512     20514     20509     20512     20515     20510     20509     20511
     20510     20509     20512     20511     20509     20512     20512     20515     20516
     20512     20515     20517     20512     20515     20518     20513     20512     20514
     20513     20512     20515     20514     20512     20515     20515     20518     20519
     20515     20518     20520     20515     20518     20521     20516     20515     20517
     20516     20515     20518     20517     20515     20518     20518     20521     20522
     20518     20521     20523     20518     20521     20524     20519     20518     20520
     20519     20518     20521     20520     20518     20521     20521     20524     20525
     20521     20524     20526     20521     20524     20527     20522     20521     20523
     20522     20521     20524     20523     20521     20524     20524     20527     20528
     20524     20527     20529     20524     20527     20530     20525     20524     20526
     20525     20524     20527     20526     20524     20527     20527     20530     20531
     20527     20530     20532     20527     20530     20533     20528     20527     20529
     20528     20527     20530     20529     20527     20530     20531     20530     20532
     20531     20530     20533     20532     20530     20533     20534     20536     20537
     20534     20538     20539     20534     20538     20540     20534     20538     20541
     20534     20580     20577     20534     20580     20581     20534     20580     20582
     20535     20534     20536     20535     20534     20538     20535     20534     20580
     20536     20534     20538     20536     20534     20580     20538     20534     20580
     20538     20541     20542     20538     20541     20572     20539     20538     20540
     20539     20538     20541     20540     20538     20541     20541     20542     20543
     20541     20542     20544     20541     20572     20570     20541     20572     20573
     20541     20572     20577     20542     20541     20572     20542     20544     20545
     20542     20544     20546     20542     20544     20547     20543     20542     20544
     20544     20547     20548     20544     20547     20549     20544     20547     20570
     20545     20544     20546     20545     20544     20547     20546     20544     20547
     20547     20549     20550     20547     20549     20551     20547     20549     20559
     20547     20570     20567     20547     20570     20571     20547     20570     20572
     20548     20547     20549     20548     20547     20570     20549     20547     20570
     20549     20551     20552     20549     20551     20553     20549     20551     20554
     20549     20559     20557     20549     20559     20560     20549     20559     20564
     20550     20549     20551     20550     20549     20559     20551     20549     20559
     20551     20554     20555     20551     20554     20556     20551     20554     20557
     20552     20551     20553     20552     20551     20554     20553     20551     20554
     20554     20557     20558     20554     20557     20559     20554     20557     20583
     20555     20554     20556     20555     20554     20557     20556     20554     20557
     20557     20559     20560     20557     20559     20564     20557     20583     20584
     20557     20583     20585     20557     20583     20589     20558     20557     20559
     20558     20557     20583     20559     20557     20583     20559     20560     20561
     20559     20560     20562     20559     20560     20563     20559     20564     20565
     20559     20564     20566     20559     20564     20567     20560     20559     20564
     20561     20560     20562     20561     20560     20563     20562     20560     20563
     20564     20567     20568     20564     20567     20569     20564     20567     20570
     20565     20564     20566     20565     20564     20567     20566     20564     20567
     20567     20570     20571     20567     20570     20572     20568     20567     20569
     20568     20567     20570     20569     20567     20570     20570     20572     20573
     20570     20572     20577     20571     20570     20572     20572     20573     20574
     20572     20573     20575     20572     20573     20576     20572     20577     20578
     20572     20577     20579     20572     20577     20580     20573     20572     20577
     20574     20573     20575     20574     20573     20576     20575     20573     20576
     20577     20580     20581     20577     20580     20582     20578     20577     20579
     20578     20577     20580     20579     20577     20580     20581     20580     20582
     20583     20585     20586     20583     20585     20587     20583     20585     20588
     20583     20589     20590     20583     20589     20591     20583     20589     20592
     20584     20583     20585     20584     20583     20589     20585     20583     20589
     20586     20585     20587     20586     20585     20588     20587     20585     20588
     20589     20592     20593     20589     20592     20594     20589     20592     20595
     20590     20589     20591     20590     20589     20592     20591     20589     20592
     20592     20595     20596     20592     20595     20597     20592     20595     20598
     20593     20592     20594     20593     20592     20595     20594     20592     20595
     20595     20598     20599     20595     20598     20600     20595     20598     20604
     20596     20595     20597     20596     20595     20598     20597     20595     20598
     20598     20600     20601     20598     20600     20602     20598     20600     20603
     20598     20604     20605     20598     20604     20606     20598     20604     20607
     20599     20598     20600     20599     20598     20604     20600     20598     20604
     20601     20600     20602     20601     20600     20603     20602     20600     20603
     20605     20604     20606     20605     20604     20607     20606     20604     20607
     20608     20612     20613     20608     20612     20614     20608     20612     20617
     20609     20608     20610     20609     20608     20611     20609     20608     20612
     20610     20608     20611     20610     20608     20612     20611     20608     20612
     20612     20614     20615     20612     20614     20616     20612     20617     20618
     20612     20617     20619     20612     20617     20623     20613     20612     20614
     20613     20612     20617     20614     20612     20617     20615     20614     20616
     20617     20623     20620     20618     20617     20619     20618     20617     20623
     20619     20617     20623     20620     20624     20625     20621     20620     20622
     20621     20620     20623     20621     20620     20624     20622     20620     20623
     20622     20620     20624     20623     20620     20624     20624     20625     20626
     20624     20625     20627     20624     20625     20628     20625     20628     20629
     20625     20628     20630     20625     20628     20636     20626     20625     20627
     20626     20625     20628     20627     20625     20628     20628     20630     20631
     20628     20636     20637     20628     20636     20638     20628     20636     20639
     20629     20628     20630     20629     20628     20636     20630     20628     20636
     20630     20631     20632     20630     20631     20633     20631     20633     20634
     20631     20633     20635     20631     20633     20645     20632     20631     20633
     20633     20645     20646     20633     20645     20647     20633     20645     20648
     20634     20633     20635     20634     20633     20645     20635     20633     20645
     20636     20639     20640     20637     20636     20638     20637     20636     20639
     20638     20636     20639     20639     20640     20641     20639     20640     20642
     20640     20642     20643     20640     20642     20644     20640     20642     20692
     20641     20640     20642     20642     20692     20693     20642     20692     20694
     20642     20692     20695     20643     20642     20644     20643     20642     20692
     20644     20642     20692     20645     20648     20649     20645     20648     20650
     20645     20648     20651     20646     20645     20647     20646     20645     20648
     20647     20645     20648     20648     20651     20652     20648     20651     20653
     20649     20648     20650     20649     20648     20651     20650     20648     20651
     20651     20653     20654     20651     20653     20655     20652     20651     20653
     20653     20655     20656     20653     20655     20657     20653     20655     20658
     20654     20653     20655     20655     20658     20659     20655     20658     20660
     20656     20655     20657     20656     20655     20658     20657     20655     20658
     20658     20660     20661     20658     20660     20662     20659     20658     20660
     20660     20662     20663     20660     20662     20664     20660     20662     20665
     20661     20660     20662     20662     20665     20666     20662     20665     20667
     20663     20662     20664     20663     20662     20665     20664     20662     20665
     20665     20667     20668     20665     20667     20669     20666     20665     20667
     20667     20669     20670     20667     20669     20671     20667     20669     20672
     20668     20667     20669     20669     20672     20673     20669     20672     20674
     20670     20669     20671     20670     20669     20672     20671     20669     20672
     20672     20674     20675     20672     20674     20676     20673     20672     20674
     20674     20676     20677     20674     20676     20678     20674     20676     20679
     20675     20674     20676     20676     20679     20680     20676     20679     20681
     20676     20679     20682     20677     20676     20678     20677     20676     20679
     20678     20676     20679     20679     20682     20683     20679     20682     20684
     20679     20682     20685     20680     20679     20681     20680     20679     20682
     20681     20679     20682     20682     20685     20686     20682     20685     20687
     20682     20685     20688     20683     20682     20684     20683     20682     20685
     20684     20682     20685     20685     20688     20689     20685     20688     20690
     20685     20688     20691     20686     20685     20687     20686     20685     20688
     20687     20685     20688     20689     20688     20690     20689     20688     20691
     20690     20688     20691     20692     20695     20696     20692     20695     20697
     20692     20695     20698     20693     20692     20694     20693     20692     20695
     20694     20692     20695     20695     20698     20699     20695     20698     20700
     20695     20698     20701     20696     20695     20697     20696     20695     20698
     20697     20695     20698     20698     20701     20702     20698     20701     20703
     20698     20701     20704     20699     20698     20700     20699     20698     20701
     20700     20698     20701     20701     20704     20705     20701     20704     20706
     20701     20704     20707     20702     20701     20703     20702     20701     20704
     20703     20701     20704     20704     20707     20708     20704     20707     20709
     20704     20707     20710     20705     20704     20706     20705     20704     20707
     20706     20704     20707     20707     20710     20711     20707     20710     20712
     20707     20710     20713     20708     20707     20709     20708     20707     20710
     20709     20707     20710     20710     20713     20714     20710     20713     20715
     20710     20713     20716     20711     20710     20712     20711     20710     20713
     20712     20710     20713     20713     20716     20717     20713     20716     20718
     20713     20716     20719     20714     20713     20715     20714     20713     20716
     20715     20713     20716     20716     20719     20720     20716     20719     20721
     20716     20719     20722     20717     20716     20718     20717     20716     20719
     20718     20716     20719     20719     20722     20723     20719     20722     20724
     20719     20722     20725     20720     20719     20721     20720     20719     20722
     20721     20719     20722     20722     20725     20726     20722     20725     20727
     20722     20725     20728     20723     20722     20724     20723     20722     20725
     20724     20722     20725     20725     20728     20729     20725     20728     20730
     20725     20728     20731     20726     20725     20727     20726     20725     20728
     20727     20725     20728     20728     20731     20732     20728     20731     20733
     20728     20731     20734     20729     20728     20730     20729     20728     20731
     20730     20728     20731     20731     20734     20735     20731     20734     20736
     20731     20734     20737     20732     20731     20733     20732     20731     20734
     20733     20731     20734     20734     20737     20738     20734     20737     20739
     20734     20737     20740     20735     20734     20736     20735     20734     20737
     20736     20734     20737     20738     20737     20739     20738     20737     20740
     20739     20737     20740     20741     20745     20746     20741     20745     20747
     20741     20745     20748     20742     20741     20743     20742     20741     20744
     20742     20741     20745     20743     20741     20744     20743     20741     20745
     20744     20741     20745     20745     20748     20749     20745     20748     20750
     20745     20748     20754     20746     20745     20747     20746     20745     20748
     20747     20745     20748     20748     20754     20751     20749     20748     20750
     20749     20748     20754     20750     20748     20754     20751     20755     20756
     20752     20751     20753     20752     20751     20754     20752     20751     20755
     20753     20751     20754     20753     20751     20755     20754     20751     20755
     20755     20756     20757     20755     20756     20758     20755     20756     20759
     20756     20759     20760     20756     20759     20761     20756     20759     20767
     20757     20756     20758     20757     20756     20759     20758     20756     20759
     20759     20761     20762     20759     20767     20768     20759     20767     20769
     20759     20767     20770     20760     20759     20761     20760     20759     20767
     20761     20759     20767     20761     20762     20763     20761     20762     20764
     20762     20764     20765     20762     20764     20766     20762     20764     20776
     20763     20762     20764     20764     20776     20777     20764     20776     20778
     20764     20776     20779     20765     20764     20766     20765     20764     20776
     20766     20764     20776     20767     20770     20771     20768     20767     20769
     20768     20767     20770     20769     20767     20770     20770     20771     20772
     20770     20771     20773     20771     20773     20774     20771     20773     20775
     20771     20773     20823     20772     20771     20773     20773     20823     20824
     20773     20823     20825     20773     20823     20826     20774     20773     20775
     20774     20773     20823     20775     20773     20823     20776     20779     20780
     20776     20779     20781     20776     20779     20782     20777     20776     20778
     20777     20776     20779     20778     20776     20779     20779     20782     20783
     20779     20782     20784     20779     20782     20785     20780     20779     20781
     20780     20779     20782     20781     20779     20782     20782     20785     20786
     20782     20785     20787     20782     20785     20788     20783     20782     20784
     20783     20782     20785     20784     20782     20785     20785     20788     20789
     20785     20788     20790     20785     20788     20791     20786     20785     20787
     20786     20785     20788     20787     20785     20788     20788     20791     20792
     20788     20791     20793     20788     20791     20794     20789     20788     20790
     20789     20788     20791     20790     20788     20791     20791     20794     20795
     20791     20794     20796     20792     20791     20793     20792     20791     20794
     20793     20791     20794     20794     20796     20797     20794     20796     20798
     20795     20794     20796     20796     20798     20799     20796     20798     20800
     20796     20798     20801     20797     20796     20798     20798     20801     20802
     20798     20801     20803     20798     20801     20804     20799     20798     20800
     20799     20798     20801     20800     20798     20801     20801     20804     20805
     20801     20804     20806     20801     20804     20807     20802     20801     20803
     20802     20801     20804     20803     20801     20804     20804     20807     20808
     20804     20807     20809     20804     20807     20810     20805     20804     20806
     20805     20804     20807     20806     20804     20807     20807     20810     20811
     20807     20810     20812     20807     20810     20813     20808     20807     20809
     20808     20807     20810     20809     20807     20810     20810     20813     20814
     20810     20813     20815     20810     20813     20816     20811     20810     20812
     20811     20810     20813     20812     20810     20813     20813     20816     20817
     20813     20816     20818     20813     20816     20819     20814     20813     20815
     20814     20813     20816     20815     20813     20816     20816     20819     20820
     20816     20819     20821     20816     20819     20822     20817     20816     20818
     20817     20816     20819     20818     20816     20819     20820     20819     20821
     20820     20819     20822     20821     20819     20822     20823     20826     20827
     20823     20826     20828     20823     20826     20829     20824     20823     20825
     20824     20823     20826     20825     20823     20826     20826     20829     20830
     20826     20829     20831     20826     20829     20832     20827     20826     20828
     20827     20826     20829     20828     20826     20829     20829     20832     20833
     20829     20832     20834     20829     20832     20835     20830     20829     20831
     20830     20829     20832     20831     20829     20832     20832     20835     20836
     20832     20835     20837     20832     20835     20838     20833     20832     20834
     20833     20832     20835     20834     20832     20835     20835     20838     20839
     20835     20838     20840     20835     20838     20841     20836     20835     20837
     20836     20835     20838     20837     20835     20838     20838     20841     20842
     20838     20841     20843     20838     20841     20844     20839     20838     20840
     20839     20838     20841     20840     20838     20841     20841     20844     20845
     20841     20844     20846     20841     20844     20847     20842     20841     20843
     20842     20841     20844     20843     20841     20844     20844     20847     20848
     20844     20847     20849     20844     20847     20850     20845     20844     20846
     20845     20844     20847     20846     20844     20847     20847     20850     20851
     20847     20850     20852     20847     20850     20853     20848     20847     20849
     20848     20847     20850     20849     20847     20850     20850     20853     20854
     20850     20853     20855     20850     20853     20856     20851     20850     20852
     20851     20850     20853     20852     20850     20853     20853     20856     20857
     20853     20856     20858     20853     20856     20859     20854     20853     20855
     20854     20853     20856     20855     20853     20856     20856     20859     20860
     20856     20859     20861     20856     20859     20862     20857     20856     20858
     20857     20856     20859     20858     20856     20859     20859     20862     20863
     20859     20862     20864     20859     20862     20865     20860     20859     20861
     20860     20859     20862     20861     20859     20862     20862     20865     20866
     20862     20865     20867     20862     20865     20868     20863     20862     20864
     20863     20862     20865     20864     20862     20865     20865     20868     20869
     20865     20868     20870     20865     20868     20871     20866     20865     20867
     20866     20865     20868     20867     20865     20868     20869     20868     20870
     20869     20868     20871     20870     20868     20871     20872     20873     20874
     20872     20873     20875     20872     20873     20888     20872     20876     20877
     20872     20876     20878     20872     20876     20879     20872     20880     20881
     20872     20880     20882     20872     20880     20883     20872     20884     20885
     20872     20884     20886     20872     20884     20887     20873     20872     20876
     20873     20872     20880     20873     20872     20884     20873     20888     20889
     20873     20888     20890     20873     20888     20894     20874     20873     20875
     20874     20873     20888     20875     20873     20888     20876     20872     20880
     20876     20872     20884     20877     20876     20878     20877     20876     20879
     20878     20876     20879     20880     20872     20884     20881     20880     20882
     20881     20880     20883     20882     20880     20883     20885     20884     20886
     20885     20884     20887     20886     20884     20887     20888     20894     20891
     20889     20888     20890     20889     20888     20894     20890     20888     20894
     20891     20895     20896     20892     20891     20893     20892     20891     20894
     20892     20891     20895     20893     20891     20894     20893     20891     20895
     20894     20891     20895     20895     20896     20897     20895     20896     20898
     20895     20896     20899     20896     20899     20900     20896     20899     20901
     20896     20899     20907     20897     20896     20898     20897     20896     20899
     20898     20896     20899     20899     20901     20902     20899     20907     20908
     20899     20907     20909     20899     20907     20910     20900     20899     20901
     20900     20899     20907     20901     20899     20907     20901     20902     20903
     20901     20902     20904     20902     20904     20905     20902     20904     20906
     20902     20904     20916     20903     20902     20904     20904     20916     20917
     20904     20916     20918     20904     20916     20919     20905     20904     20906
     20905     20904     20916     20906     20904     20916     20907     20910     20911
     20908     20907     20909     20908     20907     20910     20909     20907     20910
     20910     20911     20912     20910     20911     20913     20911     20913     20914
     20911     20913     20915     20911     20913     20963     20912     20911     20913
     20913     20963     20964     20913     20963     20965     20913     20963     20966
     20914     20913     20915     20914     20913     20963     20915     20913     20963
     20916     20919     20920     20916     20919     20921     20916     20919     20922
     20917     20916     20918     20917     20916     20919     20918     20916     20919
     20919     20922     20923     20919     20922     20924     20920     20919     20921
     20920     20919     20922     20921     20919     20922     20922     20924     20925
     20922     20924     20926     20923     20922     20924     20924     20926     20927
     20924     20926     20928     20924     20926     20929     20925     20924     20926
     20926     20929     20930     20926     20929     20931     20927     20926     20928
     20927     20926     20929     20928     20926     20929     20929     20931     20932
     20929     20931     20933     20930     20929     20931     20931     20933     20934
     20931     20933     20935     20931     20933     20936     20932     20931     20933
     20933     20936     20937     20933     20936     20938     20934     20933     20935
     20934     20933     20936     20935     20933     20936     20936     20938     20939
     20936     20938     20940     20937     20936     20938     20938     20940     20941
     20938     20940     20942     20938     20940     20943     20939     20938     20940
     20940     20943     20944     20940     20943     20945     20941     20940     20942
     20941     20940     20943     20942     20940     20943     20943     20945     20946
     20943     20945     20947     20944     20943     20945     20945     20947     20948
     20945     20947     20949     20945     20947     20950     20946     20945     20947
     20947     20950     20951     20947     20950     20952     20947     20950     20953
     20948     20947     20949     20948     20947     20950     20949     20947     20950
     20950     20953     20954     20950     20953     20955     20950     20953     20956
     20951     20950     20952     20951     20950     20953     20952     20950     20953
     20953     20956     20957     20953     20956     20958     20953     20956     20959
     20954     20953     20955     20954     20953     20956     20955     20953     20956
     20956     20959     20960     20956     20959     20961     20956     20959     20962
     20957     20956     20958     20957     20956     20959     20958     20956     20959
     20960     20959     20961     20960     20959     20962     20961     20959     20962
     20963     20966     20967     20963     20966     20968     20963     20966     20969
     20964     20963     20965     20964     20963     20966     20965     20963     20966
     20966     20969     20970     20966     20969     20971     20966     20969     20972
     20967     20966     20968     20967     20966     20969     20968     20966     20969
     20969     20972     20973     20969     20972     20974     20969     20972     20975
     20970     20969     20971     20970     20969     20972     20971     20969     20972
     20972     20975     20976     20972     20975     20977     20972     20975     20978
     20973     20972     20974     20973     20972     20975     20974     20972     20975
     20975     20978     20979     20975     20978     20980     20975     20978     20981
     20976     20975     20977     20976     20975     20978     20977     20975     20978
     20978     20981     20982     20978     20981     20983     20978     20981     20984
     20979     20978     20980     20979     20978     20981     20980     20978     20981
     20981     20984     20985     20981     20984     20986     20981     20984     20987
     20982     20981     20983     20982     20981     20984     20983     20981     20984
     20984     20987     20988     20984     20987     20989     20984     20987     20990
     20985     20984     20986     20985     20984     20987     20986     20984     20987
     20987     20990     20991     20987     20990     20992     20987     20990     20993
     20988     20987     20989     20988     20987     20990     20989     20987     20990
     20990     20993     20994     20990     20993     20995     20990     20993     20996
     20991     20990     20992     20991     20990     20993     20992     20990     20993
     20993     20996     20997     20993     20996     20998     20993     20996     20999
     20994     20993     20995     20994     20993     20996     20995     20993     20996
     20996     20999     21000     20996     20999     21001     20996     20999     21002
     20997     20996     20998     20997     20996     20999     20998     20996     20999
     20999     21002     21003     20999     21002     21004     20999     21002     21005
     21000     20999     21001     21000     20999     21002     21001     20999     21002
     21002     21005     21006     21002     21005     21007     21002     21005     21008
     21003     21002     21004     21003     21002     21005     21004     21002     21005
     21005     21008     21009     21005     21008     21010     21005     21008     21011
     21006     21005     21007     21006     21005     21008     21007     21005     21008
     21009     21008     21010     21009     21008     21011     21010     21008     21011
     21012     21014     21015     21012     21016     21017     21012     21016     21018
     21012     21016     21019     21012     21058     21055     21012     21058     21059
     21012     21058     21060     21013     21012     21014     21013     21012     21016
     21013     21012     21058     21014     21012     21016     21014     21012     21058
     21016     21012     21058     21016     21019     21020     21016     21019     21050
     21017     21016     21018     21017     21016     21019     21018     21016     21019
     21019     21020     21021     21019     21020     21022     21019     21050     21048
     21019     21050     21051     21019     21050     21055     21020     21019     21050
     21020     21022     21023     21020     21022     21024     21020     21022     21025
     21021     21020     21022     21022     21025     21026     21022     21025     21027
     21022     21025     21048     21023     21022     21024     21023     21022     21025
     21024     21022     21025     21025     21027     21028     21025     21027     21029
     21025     21027     21037     21025     21048     21045     21025     21048     21049
     21025     21048     21050     21026     21025     21027     21026     21025     21048
     21027     21025     21048     21027     21029     21030     21027     21029     21031
     21027     21029     21032     21027     21037     21035     21027     21037     21038
     21027     21037     21042     21028     21027     21029     21028     21027     21037
     21029     21027     21037     21029     21032     21033     21029     21032     21034
     21029     21032     21035     21030     21029     21031     21030     21029     21032
     21031     21029     21032     21032     21035     21036     21032     21035     21037
     21032     21035     21061     21033     21032     21034     21033     21032     21035
     21034     21032     21035     21035     21037     21038     21035     21037     21042
     21035     21061     21062     21035     21061     21063     21035     21061     21067
     21036     21035     21037     21036     21035     21061     21037     21035     21061
     21037     21038     21039     21037     21038     21040     21037     21038     21041
     21037     21042     21043     21037     21042     21044     21037     21042     21045
     21038     21037     21042     21039     21038     21040     21039     21038     21041
     21040     21038     21041     21042     21045     21046     21042     21045     21047
     21042     21045     21048     21043     21042     21044     21043     21042     21045
     21044     21042     21045     21045     21048     21049     21045     21048     21050
     21046     21045     21047     21046     21045     21048     21047     21045     21048
     21048     21050     21051     21048     21050     21055     21049     21048     21050
     21050     21051     21052     21050     21051     21053     21050     21051     21054
     21050     21055     21056     21050     21055     21057     21050     21055     21058
     21051     21050     21055     21052     21051     21053     21052     21051     21054
     21053     21051     21054     21055     21058     21059     21055     21058     21060
     21056     21055     21057     21056     21055     21058     21057     21055     21058
     21059     21058     21060     21061     21063     21064     21061     21063     21065
     21061     21063     21066     21061     21067     21068     21061     21067     21069
     21061     21067     21070     21062     21061     21063     21062     21061     21067
     21063     21061     21067     21064     21063     21065     21064     21063     21066
     21065     21063     21066     21067     21070     21071     21067     21070     21072
     21067     21070     21073     21068     21067     21069     21068     21067     21070
     21069     21067     21070     21070     21073     21074     21070     21073     21075
     21070     21073     21076     21071     21070     21072     21071     21070     21073
     21072     21070     21073     21073     21076     21077     21073     21076     21078
     21073     21076     21082     21074     21073     21075     21074     21073     21076
     21075     21073     21076     21076     21078     21079     21076     21078     21080
     21076     21078     21081     21076     21082     21083     21076     21082     21084
     21076     21082     21085     21077     21076     21078     21077     21076     21082
     21078     21076     21082     21079     21078     21080     21079     21078     21081
     21080     21078     21081     21083     21082     21084     21083     21082     21085
     21084     21082     21085     21086     21090     21091     21086     21090     21092
     21086     21090     21095     21087     21086     21088     21087     21086     21089
     21087     21086     21090     21088     21086     21089     21088     21086     21090
     21089     21086     21090     21090     21092     21093     21090     21092     21094
     21090     21095     21096     21090     21095     21097     21090     21095     21101
     21091     21090     21092     21091     21090     21095     21092     21090     21095
     21093     21092     21094     21095     21101     21098     21096     21095     21097
     21096     21095     21101     21097     21095     21101     21098     21102     21103
     21099     21098     21100     21099     21098     21101     21099     21098     21102
     21100     21098     21101     21100     21098     21102     21101     21098     21102
     21102     21103     21104     21102     21103     21105     21102     21103     21106
     21103     21106     21107     21103     21106     21108     21103     21106     21114
     21104     21103     21105     21104     21103     21106     21105     21103     21106
     21106     21108     21109     21106     21114     21115     21106     21114     21116
     21106     21114     21117     21107     21106     21108     21107     21106     21114
     21108     21106     21114     21108     21109     21110     21108     21109     21111
     21109     21111     21112     21109     21111     21113     21109     21111     21123
     21110     21109     21111     21111     21123     21124     21111     21123     21125
     21111     21123     21126     21112     21111     21113     21112     21111     21123
     21113     21111     21123     21114     21117     21118     21115     21114     21116
     21115     21114     21117     21116     21114     21117     21117     21118     21119
     21117     21118     21120     21118     21120     21121     21118     21120     21122
     21118     21120     21170     21119     21118     21120     21120     21170     21171
     21120     21170     21172     21120     21170     21173     21121     21120     21122
     21121     21120     21170     21122     21120     21170     21123     21126     21127
     21123     21126     21128     21123     21126     21129     21124     21123     21125
     21124     21123     21126     21125     21123     21126     21126     21129     21130
     21126     21129     21131     21127     21126     21128     21127     21126     21129
     21128     21126     21129     21129     21131     21132     21129     21131     21133
     21130     21129     21131     21131     21133     21134     21131     21133     21135
     21131     21133     21136     21132     21131     21133     21133     21136     21137
     21133     21136     21138     21134     21133     21135     21134     21133     21136
     21135     21133     21136     21136     21138     21139     21136     21138     21140
     21137     21136     21138     21138     21140     21141     21138     21140     21142
     21138     21140     21143     21139     21138     21140     21140     21143     21144
     21140     21143     21145     21141     21140     21142     21141     21140     21143
     21142     21140     21143     21143     21145     21146     21143     21145     21147
     21144     21143     21145     21145     21147     21148     21145     21147     21149
     21145     21147     21150     21146     21145     21147     21147     21150     21151
     21147     21150     21152     21148     21147     21149     21148     21147     21150
     21149     21147     21150     21150     21152     21153     21150     21152     21154
     21151     21150     21152     21152     21154     21155     21152     21154     21156
     21152     21154     21157     21153     21152     21154     21154     21157     21158
     21154     21157     21159     21154     21157     21160     21155     21154     21156
     21155     21154     21157     21156     21154     21157     21157     21160     21161
     21157     21160     21162     21157     21160     21163     21158     21157     21159
     21158     21157     21160     21159     21157     21160     21160     21163     21164
     21160     21163     21165     21160     21163     21166     21161     21160     21162
     21161     21160     21163     21162     21160     21163     21163     21166     21167
     21163     21166     21168     21163     21166     21169     21164     21163     21165
     21164     21163     21166     21165     21163     21166     21167     21166     21168
     21167     21166     21169     21168     21166     21169     21170     21173     21174
     21170     21173     21175     21170     21173     21176     21171     21170     21172
     21171     21170     21173     21172     21170     21173     21173     21176     21177
     21173     21176     21178     21173     21176     21179     21174     21173     21175
     21174     21173     21176     21175     21173     21176     21176     21179     21180
     21176     21179     21181     21176     21179     21182     21177     21176     21178
     21177     21176     21179     21178     21176     21179     21179     21182     21183
     21179     21182     21184     21179     21182     21185     21180     21179     21181
     21180     21179     21182     21181     21179     21182     21182     21185     21186
     21182     21185     21187     21182     21185     21188     21183     21182     21184
     21183     21182     21185     21184     21182     21185     21185     21188     21189
     21185     21188     21190     21185     21188     21191     21186     21185     21187
     21186     21185     21188     21187     21185     21188     21188     21191     21192
     21188     21191     21193     21188     21191     21194     21189     21188     21190
     21189     21188     21191     21190     21188     21191     21191     21194     21195
     21191     21194     21196     21191     21194     21197     21192     21191     21193
     21192     21191     21194     21193     21191     21194     21194     21197     21198
     21194     21197     21199     21194     21197     21200     21195     21194     21196
     21195     21194     21197     21196     21194     21197     21197     21200     21201
     21197     21200     21202     21197     21200     21203     21198     21197     21199
     21198     21197     21200     21199     21197     21200     21200     21203     21204
     21200     21203     21205     21200     21203     21206     21201     21200     21202
     21201     21200     21203     21202     21200     21203     21203     21206     21207
     21203     21206     21208     21203     21206     21209     21204     21203     21205
     21204     21203     21206     21205     21203     21206     21206     21209     21210
     21206     21209     21211     21206     21209     21212     21207     21206     21208
     21207     21206     21209     21208     21206     21209     21209     21212     21213
     21209     21212     21214     21209     21212     21215     21210     21209     21211
     21210     21209     21212     21211     21209     21212     21212     21215     21216
     21212     21215     21217     21212     21215     21218     21213     21212     21214
     21213     21212     21215     21214     21212     21215     21216     21215     21217
     21216     21215     21218     21217     21215     21218     21219     21220     21221
     21219     21220     21222     21219     21220     21235     21219     21223     21224
     21219     21223     21225     21219     21223     21226     21219     21227     21228
     21219     21227     21229     21219     21227     21230     21219     21231     21232
     21219     21231     21233     21219     21231     21234     21220     21219     21223
     21220     21219     21227     21220     21219     21231     21220     21235     21236
     21220     21235     21237     21220     21235     21241     21221     21220     21222
     21221     21220     21235     21222     21220     21235     21223     21219     21227
     21223     21219     21231     21224     21223     21225     21224     21223     21226
     21225     21223     21226     21227     21219     21231     21228     21227     21229
     21228     21227     21230     21229     21227     21230     21232     21231     21233
     21232     21231     21234     21233     21231     21234     21235     21241     21238
     21236     21235     21237     21236     21235     21241     21237     21235     21241
     21238     21242     21243     21239     21238     21240     21239     21238     21241
     21239     21238     21242     21240     21238     21241     21240     21238     21242
     21241     21238     21242     21242     21243     21244     21242     21243     21245
     21242     21243     21246     21243     21246     21247     21243     21246     21248
     21243     21246     21254     21244     21243     21245     21244     21243     21246
     21245     21243     21246     21246     21248     21249     21246     21254     21255
     21246     21254     21256     21246     21254     21257     21247     21246     21248
     21247     21246     21254     21248     21246     21254     21248     21249     21250
     21248     21249     21251     21249     21251     21252     21249     21251     21253
     21249     21251     21263     21250     21249     21251     21251     21263     21264
     21251     21263     21265     21251     21263     21266     21252     21251     21253
     21252     21251     21263     21253     21251     21263     21254     21257     21258
     21255     21254     21256     21255     21254     21257     21256     21254     21257
     21257     21258     21259     21257     21258     21260     21258     21260     21261
     21258     21260     21262     21258     21260     21310     21259     21258     21260
     21260     21310     21311     21260     21310     21312     21260     21310     21313
     21261     21260     21262     21261     21260     21310     21262     21260     21310
     21263     21266     21267     21263     21266     21268     21263     21266     21269
     21264     21263     21265     21264     21263     21266     21265     21263     21266
     21266     21269     21270     21266     21269     21271     21267     21266     21268
     21267     21266     21269     21268     21266     21269     21269     21271     21272
     21269     21271     21273     21270     21269     21271     21271     21273     21274
     21271     21273     21275     21271     21273     21276     21272     21271     21273
     21273     21276     21277     21273     21276     21278     21274     21273     21275
     21274     21273     21276     21275     21273     21276     21276     21278     21279
     21276     21278     21280     21277     21276     21278     21278     21280     21281
     21278     21280     21282     21278     21280     21283     21279     21278     21280
     21280     21283     21284     21280     21283     21285     21281     21280     21282
     21281     21280     21283     21282     21280     21283     21283     21285     21286
     21283     21285     21287     21284     21283     21285     21285     21287     21288
     21285     21287     21289     21285     21287     21290     21286     21285     21287
     21287     21290     21291     21287     21290     21292     21288     21287     21289
     21288     21287     21290     21289     21287     21290     21290     21292     21293
     21290     21292     21294     21291     21290     21292     21292     21294     21295
     21292     21294     21296     21292     21294     21297     21293     21292     21294
     21294     21297     21298     21294     21297     21299     21294     21297     21300
     21295     21294     21296     21295     21294     21297     21296     21294     21297
     21297     21300     21301     21297     21300     21302     21297     21300     21303
     21298     21297     21299     21298     21297     21300     21299     21297     21300
     21300     21303     21304     21300     21303     21305     21300     21303     21306
     21301     21300     21302     21301     21300     21303     21302     21300     21303
     21303     21306     21307     21303     21306     21308     21303     21306     21309
     21304     21303     21305     21304     21303     21306     21305     21303     21306
     21307     21306     21308     21307     21306     21309     21308     21306     21309
     21310     21313     21314     21310     21313     21315     21310     21313     21316
     21311     21310     21312     21311     21310     21313     21312     21310     21313
     21313     21316     21317     21313     21316     21318     21313     21316     21319
     21314     21313     21315     21314     21313     21316     21315     21313     21316
     21316     21319     21320     21316     21319     21321     21316     21319     21322
     21317     21316     21318     21317     21316     21319     21318     21316     21319
     21319     21322     21323     21319     21322     21324     21319     21322     21325
     21320     21319     21321     21320     21319     21322     21321     21319     21322
     21322     21325     21326     21322     21325     21327     21322     21325     21328
     21323     21322     21324     21323     21322     21325     21324     21322     21325
     21325     21328     21329     21325     21328     21330     21325     21328     21331
     21326     21325     21327     21326     21325     21328     21327     21325     21328
     21328     21331     21332     21328     21331     21333     21328     21331     21334
     21329     21328     21330     21329     21328     21331     21330     21328     21331
     21331     21334     21335     21331     21334     21336     21331     21334     21337
     21332     21331     21333     21332     21331     21334     21333     21331     21334
     21334     21337     21338     21334     21337     21339     21334     21337     21340
     21335     21334     21336     21335     21334     21337     21336     21334     21337
     21337     21340     21341     21337     21340     21342     21337     21340     21343
     21338     21337     21339     21338     21337     21340     21339     21337     21340
     21340     21343     21344     21340     21343     21345     21340     21343     21346
     21341     21340     21342     21341     21340     21343     21342     21340     21343
     21343     21346     21347     21343     21346     21348     21343     21346     21349
     21344     21343     21345     21344     21343     21346     21345     21343     21346
     21346     21349     21350     21346     21349     21351     21346     21349     21352
     21347     21346     21348     21347     21346     21349     21348     21346     21349
     21349     21352     21353     21349     21352     21354     21349     21352     21355
     21350     21349     21351     21350     21349     21352     21351     21349     21352
     21352     21355     21356     21352     21355     21357     21352     21355     21358
     21353     21352     21354     21353     21352     21355     21354     21352     21355
     21356     21355     21357     21356     21355     21358     21357     21355     21358
     21359     21360     21361     21359     21360     21362     21359     21360     21363
     21359     21364     21365     21359     21364     21366     21359     21364     21367
     21359     21368     21369     21359     21368     21370     21359     21368     21371
     21359     21372     21373     21359     21372     21374     21359     21372     21375
     21360     21359     21364     21360     21359     21368     21360     21359     21372
     21361     21360     21362     21361     21360     21363     21362     21360     21363
     21364     21359     21368     21364     21359     21372     21365     21364     21366
     21365     21364     21367     21366     21364     21367     21368     21359     21372
     21369     21368     21370     21369     21368     21371     21370     21368     21371
     21372     21375     21376     21372     21375     21377     21372     21375     21381
     21373     21372     21374     21373     21372     21375     21374     21372     21375
     21375     21381     21378     21376     21375     21377     21376     21375     21381
     21377     21375     21381     21378     21382     21383     21379     21378     21380
     21379     21378     21381     21379     21378     21382     21380     21378     21381
     21380     21378     21382     21381     21378     21382     21382     21383     21384
     21382     21383     21385     21382     21383     21386     21383     21386     21387
     21383     21386     21388     21383     21386     21394     21384     21383     21385
     21384     21383     21386     21385     21383     21386     21386     21388     21389
     21386     21394     21395     21386     21394     21396     21386     21394     21397
     21387     21386     21388     21387     21386     21394     21388     21386     21394
     21388     21389     21390     21388     21389     21391     21389     21391     21392
     21389     21391     21393     21389     21391     21403     21390     21389     21391
     21391     21403     21404     21391     21403     21405     21391     21403     21406
     21392     21391     21393     21392     21391     21403     21393     21391     21403
     21394     21397     21398     21395     21394     21396     21395     21394     21397
     21396     21394     21397     21397     21398     21399     21397     21398     21400
     21398     21400     21401     21398     21400     21402     21398     21400     21448
     21399     21398     21400     21400     21448     21449     21400     21448     21450
     21400     21448     21451     21401     21400     21402     21401     21400     21448
     21402     21400     21448     21403     21406     21407     21403     21406     21408
     21403     21406     21409     21404     21403     21405     21404     21403     21406
     21405     21403     21406     21406     21409     21410     21406     21409     21411
     21406     21409     21412     21407     21406     21408     21407     21406     21409
     21408     21406     21409     21409     21412     21413     21409     21412     21414
     21409     21412     21415     21410     21409     21411     21410     21409     21412
     21411     21409     21412     21412     21415     21416     21412     21415     21417
     21412     21415     21418     21413     21412     21414     21413     21412     21415
     21414     21412     21415     21415     21418     21419     21415     21418     21420
     21415     21418     21421     21416     21415     21417     21416     21415     21418
     21417     21415     21418     21418     21421     21422     21418     21421     21423
     21419     21418     21420     21419     21418     21421     21420     21418     21421
     21421     21423     21424     21421     21423     21425     21422     21421     21423
     21423     21425     21426     21423     21425     21427     21423     21425     21428
     21424     21423     21425     21425     21428     21429     21425     21428     21430
     21426     21425     21427     21426     21425     21428     21427     21425     21428
     21428     21430     21431     21428     21430     21432     21429     21428     21430
     21430     21432     21433     21430     21432     21434     21430     21432     21435
     21431     21430     21432     21432     21435     21436     21432     21435     21437
     21432     21435     21438     21433     21432     21434     21433     21432     21435
     21434     21432     21435     21435     21438     21439     21435     21438     21440
     21435     21438     21441     21436     21435     21437     21436     21435     21438
     21437     21435     21438     21438     21441     21442     21438     21441     21443
     21438     21441     21444     21439     21438     21440     21439     21438     21441
     21440     21438     21441     21441     21444     21445     21441     21444     21446
     21441     21444     21447     21442     21441     21443     21442     21441     21444
     21443     21441     21444     21445     21444     21446     21445     21444     21447
     21446     21444     21447     21448     21451     21452     21448     21451     21453
     21448     21451     21454     21449     21448     21450     21449     21448     21451
     21450     21448     21451     21451     21454     21455     21451     21454     21456
     21451     21454     21457     21452     21451     21453     21452     21451     21454
     21453     21451     21454     21454     21457     21458     21454     21457     21459
     21454     21457     21460     21455     21454     21456     21455     21454     21457
     21456     21454     21457     21457     21460     21461     21457     21460     21462
     21457     21460     21463     21458     21457     21459     21458     21457     21460
     21459     21457     21460     21460     21463     21464     21460     21463     21465
     21460     21463     21466     21461     21460     21462     21461     21460     21463
     21462     21460     21463     21463     21466     21467     21463     21466     21468
     21463     21466     21469     21464     21463     21465     21464     21463     21466
     21465     21463     21466     21466     21469     21470     21466     21469     21471
     21466     21469     21472     21467     21466     21468     21467     21466     21469
     21468     21466     21469     21469     21472     21473     21469     21472     21474
     21469     21472     21475     21470     21469     21471     21470     21469     21472
     21471     21469     21472     21472     21475     21476     21472     21475     21477
     21472     21475     21478     21473     21472     21474     21473     21472     21475
     21474     21472     21475     21475     21478     21479     21475     21478     21480
     21475     21478     21481     21476     21475     21477     21476     21475     21478
     21477     21475     21478     21478     21481     21482     21478     21481     21483
     21478     21481     21484     21479     21478     21480     21479     21478     21481
     21480     21478     21481     21481     21484     21485     21481     21484     21486
     21481     21484     21487     21482     21481     21483     21482     21481     21484
     21483     21481     21484     21484     21487     21488     21484     21487     21489
     21484     21487     21490     21485     21484     21486     21485     21484     21487
     21486     21484     21487     21487     21490     21491     21487     21490     21492
     21487     21490     21493     21488     21487     21489     21488     21487     21490
     21489     21487     21490     21490     21493     21494     21490     21493     21495
     21490     21493     21496     21491     21490     21492     21491     21490     21493
     21492     21490     21493     21494     21493     21495     21494     21493     21496
     21495     21493     21496     21497     21499     21500     21497     21501     21502
     21497     21501     21503     21497     21501     21504     21497     21543     21540
     21497     21543     21544     21497     21543     21545     21498     21497     21499
     21498     21497     21501     21498     21497     21543     21499     21497     21501
     21499     21497     21543     21501     21497     21543     21501     21504     21505
     21501     21504     21535     21502     21501     21503     21502     21501     21504
     21503     21501     21504     21504     21505     21506     21504     21505     21507
     21504     21535     21533     21504     21535     21536     21504     21535     21540
     21505     21504     21535     21505     21507     21508     21505     21507     21509
     21505     21507     21510     21506     21505     21507     21507     21510     21511
     21507     21510     21512     21507     21510     21533     21508     21507     21509
     21508     21507     21510     21509     21507     21510     21510     21512     21513
     21510     21512     21514     21510     21512     21522     21510     21533     21530
     21510     21533     21534     21510     21533     21535     21511     21510     21512
     21511     21510     21533     21512     21510     21533     21512     21514     21515
     21512     21514     21516     21512     21514     21517     21512     21522     21520
     21512     21522     21523     21512     21522     21527     21513     21512     21514
     21513     21512     21522     21514     21512     21522     21514     21517     21518
     21514     21517     21519     21514     21517     21520     21515     21514     21516
     21515     21514     21517     21516     21514     21517     21517     21520     21521
     21517     21520     21522     21517     21520     21546     21518     21517     21519
     21518     21517     21520     21519     21517     21520     21520     21522     21523
     21520     21522     21527     21520     21546     21547     21520     21546     21548
     21520     21546     21552     21521     21520     21522     21521     21520     21546
     21522     21520     21546     21522     21523     21524     21522     21523     21525
     21522     21523     21526     21522     21527     21528     21522     21527     21529
     21522     21527     21530     21523     21522     21527     21524     21523     21525
     21524     21523     21526     21525     21523     21526     21527     21530     21531
     21527     21530     21532     21527     21530     21533     21528     21527     21529
     21528     21527     21530     21529     21527     21530     21530     21533     21534
     21530     21533     21535     21531     21530     21532     21531     21530     21533
     21532     21530     21533     21533     21535     21536     21533     21535     21540
     21534     21533     21535     21535     21536     21537     21535     21536     21538
     21535     21536     21539     21535     21540     21541     21535     21540     21542
     21535     21540     21543     21536     21535     21540     21537     21536     21538
     21537     21536     21539     21538     21536     21539     21540     21543     21544
     21540     21543     21545     21541     21540     21542     21541     21540     21543
     21542     21540     21543     21544     21543     21545     21546     21548     21549
     21546     21548     21550     21546     21548     21551     21546     21552     21553
     21546     21552     21554     21546     21552     21555     21547     21546     21548
     21547     21546     21552     21548     21546     21552     21549     21548     21550
     21549     21548     21551     21550     21548     21551     21552     21555     21556
     21552     21555     21557     21552     21555     21558     21553     21552     21554
     21553     21552     21555     21554     21552     21555     21555     21558     21559
     21555     21558     21560     21555     21558     21561     21556     21555     21557
     21556     21555     21558     21557     21555     21558     21558     21561     21562
     21558     21561     21563     21558     21561     21567     21559     21558     21560
     21559     21558     21561     21560     21558     21561     21561     21563     21564
     21561     21563     21565     21561     21563     21566     21561     21567     21568
     21561     21567     21569     21561     21567     21570     21562     21561     21563
     21562     21561     21567     21563     21561     21567     21564     21563     21565
     21564     21563     21566     21565     21563     21566     21568     21567     21569
     21568     21567     21570     21569     21567     21570     21571     21573     21574
     21571     21575     21576     21571     21575     21577     21571     21575     21578
     21571     21617     21614     21571     21617     21618     21571     21617     21619
     21572     21571     21573     21572     21571     21575     21572     21571     21617
     21573     21571     21575     21573     21571     21617     21575     21571     21617
     21575     21578     21579     21575     21578     21609     21576     21575     21577
     21576     21575     21578     21577     21575     21578     21578     21579     21580
     21578     21579     21581     21578     21609     21607     21578     21609     21610
     21578     21609     21614     21579     21578     21609     21579     21581     21582
     21579     21581     21583     21579     21581     21584     21580     21579     21581
     21581     21584     21585     21581     21584     21586     21581     21584     21607
     21582     21581     21583     21582     21581     21584     21583     21581     21584
     21584     21586     21587     21584     21586     21588     21584     21586     21596
     21584     21607     21604     21584     21607     21608     21584     21607     21609
     21585     21584     21586     21585     21584     21607     21586     21584     21607
     21586     21588     21589     21586     21588     21590     21586     21588     21591
     21586     21596     21594     21586     21596     21597     21586     21596     21601
     21587     21586     21588     21587     21586     21596     21588     21586     21596
     21588     21591     21592     21588     21591     21593     21588     21591     21594
     21589     21588     21590     21589     21588     21591     21590     21588     21591
     21591     21594     21595     21591     21594     21596     21591     21594     21620
     21592     21591     21593     21592     21591     21594     21593     21591     21594
     21594     21596     21597     21594     21596     21601     21594     21620     21621
     21594     21620     21622     21594     21620     21626     21595     21594     21596
     21595     21594     21620     21596     21594     21620     21596     21597     21598
     21596     21597     21599     21596     21597     21600     21596     21601     21602
     21596     21601     21603     21596     21601     21604     21597     21596     21601
     21598     21597     21599     21598     21597     21600     21599     21597     21600
     21601     21604     21605     21601     21604     21606     21601     21604     21607
     21602     21601     21603     21602     21601     21604     21603     21601     21604
     21604     21607     21608     21604     21607     21609     21605     21604     21606
     21605     21604     21607     21606     21604     21607     21607     21609     21610
     21607     21609     21614     21608     21607     21609     21609     21610     21611
     21609     21610     21612     21609     21610     21613     21609     21614     21615
     21609     21614     21616     21609     21614     21617     21610     21609     21614
     21611     21610     21612     21611     21610     21613     21612     21610     21613
     21614     21617     21618     21614     21617     21619     21615     21614     21616
     21615     21614     21617     21616     21614     21617     21618     21617     21619
     21620     21622     21623     21620     21622     21624     21620     21622     21625
     21620     21626     21627     21620     21626     21628     21620     21626     21629
     21621     21620     21622     21621     21620     21626     21622     21620     21626
     21623     21622     21624     21623     21622     21625     21624     21622     21625
     21626     21629     21630     21626     21629     21631     21626     21629     21632
     21627     21626     21628     21627     21626     21629     21628     21626     21629
     21629     21632     21633     21629     21632     21634     21629     21632     21635
     21630     21629     21631     21630     21629     21632     21631     21629     21632
     21632     21635     21636     21632     21635     21637     21632     21635     21641
     21633     21632     21634     21633     21632     21635     21634     21632     21635
     21635     21637     21638     21635     21637     21639     21635     21637     21640
     21635     21641     21642     21635     21641     21643     21635     21641     21644
     21636     21635     21637     21636     21635     21641     21637     21635     21641
     21638     21637     21639     21638     21637     21640     21639     21637     21640
     21642     21641     21643     21642     21641     21644     21643     21641     21644
     21645     21646     21647     21645     21646     21648     21645     21646     21661
     21645     21649     21650     21645     21649     21651     21645     21649     21652
     21645     21653     21654     21645     21653     21655     21645     21653     21656
     21645     21657     21658     21645     21657     21659     21645     21657     21660
     21646     21645     21649     21646     21645     21653     21646     21645     21657
     21646     21661     21662     21646     21661     21663     21646     21661     21667
     21647     21646     21648     21647     21646     21661     21648     21646     21661
     21649     21645     21653     21649     21645     21657     21650     21649     21651
     21650     21649     21652     21651     21649     21652     21653     21645     21657
     21654     21653     21655     21654     21653     21656     21655     21653     21656
     21658     21657     21659     21658     21657     21660     21659     21657     21660
     21661     21667     21664     21662     21661     21663     21662     21661     21667
     21663     21661     21667     21664     21668     21669     21665     21664     21666
     21665     21664     21667     21665     21664     21668     21666     21664     21667
     21666     21664     21668     21667     21664     21668     21668     21669     21670
     21668     21669     21671     21668     21669     21672     21669     21672     21673
     21669     21672     21674     21669     21672     21680     21670     21669     21671
     21670     21669     21672     21671     21669     21672     21672     21674     21675
     21672     21680     21681     21672     21680     21682     21672     21680     21683
     21673     21672     21674     21673     21672     21680     21674     21672     21680
     21674     21675     21676     21674     21675     21677     21675     21677     21678
     21675     21677     21679     21675     21677     21689     21676     21675     21677
     21677     21689     21690     21677     21689     21691     21677     21689     21692
     21678     21677     21679     21678     21677     21689     21679     21677     21689
     21680     21683     21684     21681     21680     21682     21681     21680     21683
     21682     21680     21683     21683     21684     21685     21683     21684     21686
     21684     21686     21687     21684     21686     21688     21684     21686     21736
     21685     21684     21686     21686     21736     21737     21686     21736     21738
     21686     21736     21739     21687     21686     21688     21687     21686     21736
     21688     21686     21736     21689     21692     21693     21689     21692     21694
     21689     21692     21695     21690     21689     21691     21690     21689     21692
     21691     21689     21692     21692     21695     21696     21692     21695     21697
     21692     21695     21698     21693     21692     21694     21693     21692     21695
     21694     21692     21695     21695     21698     21699     21695     21698     21700
     21695     21698     21701     21696     21695     21697     21696     21695     21698
     21697     21695     21698     21698     21701     21702     21698     21701     21703
     21698     21701     21704     21699     21698     21700     21699     21698     21701
     21700     21698     21701     21701     21704     21705     21701     21704     21706
     21701     21704     21707     21702     21701     21703     21702     21701     21704
     21703     21701     21704     21704     21707     21708     21704     21707     21709
     21705     21704     21706     21705     21704     21707     21706     21704     21707
     21707     21709     21710     21707     21709     21711     21708     21707     21709
     21709     21711     21712     21709     21711     21713     21709     21711     21714
     21710     21709     21711     21711     21714     21715     21711     21714     21716
     21711     21714     21717     21712     21711     21713     21712     21711     21714
     21713     21711     21714     21714     21717     21718     21714     21717     21719
     21714     21717     21720     21715     21714     21716     21715     21714     21717
     21716     21714     21717     21717     21720     21721     21717     21720     21722
     21717     21720     21723     21718     21717     21719     21718     21717     21720
     21719     21717     21720     21720     21723     21724     21720     21723     21725
     21720     21723     21726     21721     21720     21722     21721     21720     21723
     21722     21720     21723     21723     21726     21727     21723     21726     21728
     21723     21726     21729     21724     21723     21725     21724     21723     21726
     21725     21723     21726     21726     21729     21730     21726     21729     21731
     21726     21729     21732     21727     21726     21728     21727     21726     21729
     21728     21726     21729     21729     21732     21733     21729     21732     21734
     21729     21732     21735     21730     21729     21731     21730     21729     21732
     21731     21729     21732     21733     21732     21734     21733     21732     21735
     21734     21732     21735     21736     21739     21740     21736     21739     21741
     21736     21739     21742     21737     21736     21738     21737     21736     21739
     21738     21736     21739     21739     21742     21743     21739     21742     21744
     21739     21742     21745     21740     21739     21741     21740     21739     21742
     21741     21739     21742     21742     21745     21746     21742     21745     21747
     21742     21745     21748     21743     21742     21744     21743     21742     21745
     21744     21742     21745     21745     21748     21749     21745     21748     21750
     21745     21748     21751     21746     21745     21747     21746     21745     21748
     21747     21745     21748     21748     21751     21752     21748     21751     21753
     21748     21751     21754     21749     21748     21750     21749     21748     21751
     21750     21748     21751     21751     21754     21755     21751     21754     21756
     21751     21754     21757     21752     21751     21753     21752     21751     21754
     21753     21751     21754     21754     21757     21758     21754     21757     21759
     21754     21757     21760     21755     21754     21756     21755     21754     21757
     21756     21754     21757     21757     21760     21761     21757     21760     21762
     21757     21760     21763     21758     21757     21759     21758     21757     21760
     21759     21757     21760     21760     21763     21764     21760     21763     21765
     21760     21763     21766     21761     21760     21762     21761     21760     21763
     21762     21760     21763     21763     21766     21767     21763     21766     21768
     21763     21766     21769     21764     21763     21765     21764     21763     21766
     21765     21763     21766     21766     21769     21770     21766     21769     21771
     21766     21769     21772     21767     21766     21768     21767     21766     21769
     21768     21766     21769     21769     21772     21773     21769     21772     21774
     21769     21772     21775     21770     21769     21771     21770     21769     21772
     21771     21769     21772     21772     21775     21776     21772     21775     21777
     21772     21775     21778     21773     21772     21774     21773     21772     21775
     21774     21772     21775     21776     21775     21777     21776     21775     21778
     21777     21775     21778     21779     21783     21784     21779     21783     21785
     21779     21783     21786     21780     21779     21781     21780     21779     21782
     21780     21779     21783     21781     21779     21782     21781     21779     21783
     21782     21779     21783     21783     21786     21787     21783     21786     21788
     21783     21786     21792     21784     21783     21785     21784     21783     21786
     21785     21783     21786     21786     21792     21789     21787     21786     21788
     21787     21786     21792     21788     21786     21792     21789     21793     21794
     21790     21789     21791     21790     21789     21792     21790     21789     21793
     21791     21789     21792     21791     21789     21793     21792     21789     21793
     21793     21794     21795     21793     21794     21796     21793     21794     21797
     21794     21797     21798     21794     21797     21799     21794     21797     21805
     21795     21794     21796     21795     21794     21797     21796     21794     21797
     21797     21799     21800     21797     21805     21806     21797     21805     21807
     21797     21805     21808     21798     21797     21799     21798     21797     21805
     21799     21797     21805     21799     21800     21801     21799     21800     21802
     21800     21802     21803     21800     21802     21804     21800     21802     21814
     21801     21800     21802     21802     21814     21815     21802     21814     21816
     21802     21814     21817     21803     21802     21804     21803     21802     21814
     21804     21802     21814     21805     21808     21809     21806     21805     21807
     21806     21805     21808     21807     21805     21808     21808     21809     21810
     21808     21809     21811     21809     21811     21812     21809     21811     21813
     21809     21811     21861     21810     21809     21811     21811     21861     21862
     21811     21861     21863     21811     21861     21864     21812     21811     21813
     21812     21811     21861     21813     21811     21861     21814     21817     21818
     21814     21817     21819     21814     21817     21820     21815     21814     21816
     21815     21814     21817     21816     21814     21817     21817     21820     21821
     21817     21820     21822     21818     21817     21819     21818     21817     21820
     21819     21817     21820     21820     21822     21823     21820     21822     21824
     21821     21820     21822     21822     21824     21825     21822     21824     21826
     21822     21824     21827     21823     21822     21824     21824     21827     21828
     21824     21827     21829     21825     21824     21826     21825     21824     21827
     21826     21824     21827     21827     21829     21830     21827     21829     21831
     21828     21827     21829     21829     21831     21832     21829     21831     21833
     21829     21831     21834     21830     21829     21831     21831     21834     21835
     21831     21834     21836     21832     21831     21833     21832     21831     21834
     21833     21831     21834     21834     21836     21837     21834     21836     21838
     21835     21834     21836     21836     21838     21839     21836     21838     21840
     21836     21838     21841     21837     21836     21838     21838     21841     21842
     21838     21841     21843     21839     21838     21840     21839     21838     21841
     21840     21838     21841     21841     21843     21844     21841     21843     21845
     21842     21841     21843     21843     21845     21846     21843     21845     21847
     21843     21845     21848     21844     21843     21845     21845     21848     21849
     21845     21848     21850     21845     21848     21851     21846     21845     21847
     21846     21845     21848     21847     21845     21848     21848     21851     21852
     21848     21851     21853     21848     21851     21854     21849     21848     21850
     21849     21848     21851     21850     21848     21851     21851     21854     21855
     21851     21854     21856     21851     21854     21857     21852     21851     21853
     21852     21851     21854     21853     21851     21854     21854     21857     21858
     21854     21857     21859     21854     21857     21860     21855     21854     21856
     21855     21854     21857     21856     21854     21857     21858     21857     21859
     21858     21857     21860     21859     21857     21860     21861     21864     21865
     21861     21864     21866     21861     21864     21867     21862     21861     21863
     21862     21861     21864     21863     21861     21864     21864     21867     21868
     21864     21867     21869     21864     21867     21870     21865     21864     21866
     21865     21864     21867     21866     21864     21867     21867     21870     21871
     21867     21870     21872     21867     21870     21873     21868     21867     21869
     21868     21867     21870     21869     21867     21870     21870     21873     21874
     21870     21873     21875     21870     21873     21876     21871     21870     21872
     21871     21870     21873     21872     21870     21873     21873     21876     21877
     21873     21876     21878     21873     21876     21879     21874     21873     21875
     21874     21873     21876     21875     21873     21876     21876     21879     21880
     21876     21879     21881     21876     21879     21882     21877     21876     21878
     21877     21876     21879     21878     21876     21879     21879     21882     21883
     21879     21882     21884     21879     21882     21885     21880     21879     21881
     21880     21879     21882     21881     21879     21882     21882     21885     21886
     21882     21885     21887     21882     21885     21888     21883     21882     21884
     21883     21882     21885     21884     21882     21885     21885     21888     21889
     21885     21888     21890     21885     21888     21891     21886     21885     21887
     21886     21885     21888     21887     21885     21888     21888     21891     21892
     21888     21891     21893     21888     21891     21894     21889     21888     21890
     21889     21888     21891     21890     21888     21891     21891     21894     21895
     21891     21894     21896     21891     21894     21897     21892     21891     21893
     21892     21891     21894     21893     21891     21894     21894     21897     21898
     21894     21897     21899     21894     21897     21900     21895     21894     21896
     21895     21894     21897     21896     21894     21897     21897     21900     21901
     21897     21900     21902     21897     21900     21903     21898     21897     21899
     21898     21897     21900     21899     21897     21900     21900     21903     21904
     21900     21903     21905     21900     21903     21906     21901     21900     21902
     21901     21900     21903     21902     21900     21903     21903     21906     21907
     21903     21906     21908     21903     21906     21909     21904     21903     21905
     21904     21903     21906     21905     21903     21906     21907     21906     21908
     21907     21906     21909     21908     21906     21909     21910     21911     21912
     21910     21911     21913     21910     21911     21926     21910     21914     21915
     21910     21914     21916     21910     21914     21917     21910     21918     21919
     21910     21918     21920     21910     21918     21921     21910     21922     21923
     21910     21922     21924     21910     21922     21925     21911     21910     21914
     21911     21910     21918     21911     21910     21922     21911     21926     21927
     21911     21926     21928     21911     21926     21932     21912     21911     21913
     21912     21911     21926     21913     21911     21926     21914     21910     21918
     21914     21910     21922     21915     21914     21916     21915     21914     21917
     21916     21914     21917     21918     21910     21922     21919     21918     21920
     21919     21918     21921     21920     21918     21921     21923     21922     21924
     21923     21922     21925     21924     21922     21925     21926     21932     21929
     21927     21926     21928     21927     21926     21932     21928     21926     21932
     21929     21933     21934     21930     21929     21931     21930     21929     21932
     21930     21929     21933     21931     21929     21932     21931     21929     21933
     21932     21929     21933     21933     21934     21935     21933     21934     21936
     21933     21934     21937     21934     21937     21938     21934     21937     21939
     21934     21937     21945     21935     21934     21936     21935     21934     21937
     21936     21934     21937     21937     21939     21940     21937     21945     21946
     21937     21945     21947     21937     21945     21948     21938     21937     21939
     21938     21937     21945     21939     21937     21945     21939     21940     21941
     21939     21940     21942     21940     21942     21943     21940     21942     21944
     21940     21942     21954     21941     21940     21942     21942     21954     21955
     21942     21954     21956     21942     21954     21957     21943     21942     21944
     21943     21942     21954     21944     21942     21954     21945     21948     21949
     21946     21945     21947     21946     21945     21948     21947     21945     21948
     21948     21949     21950     21948     21949     21951     21949     21951     21952
     21949     21951     21953     21949     21951     22001     21950     21949     21951
     21951     22001     22002     21951     22001     22003     21951     22001     22004
     21952     21951     21953     21952     21951     22001     21953     21951     22001
     21954     21957     21958     21954     21957     21959     21954     21957     21960
     21955     21954     21956     21955     21954     21957     21956     21954     21957
     21957     21960     21961     21957     21960     21962     21958     21957     21959
     21958     21957     21960     21959     21957     21960     21960     21962     21963
     21960     21962     21964     21961     21960     21962     21962     21964     21965
     21962     21964     21966     21962     21964     21967     21963     21962     21964
     21964     21967     21968     21964     21967     21969     21965     21964     21966
     21965     21964     21967     21966     21964     21967     21967     21969     21970
     21967     21969     21971     21968     21967     21969     21969     21971     21972
     21969     21971     21973     21969     21971     21974     21970     21969     21971
     21971     21974     21975     21971     21974     21976     21972     21971     21973
     21972     21971     21974     21973     21971     21974     21974     21976     21977
     21974     21976     21978     21975     21974     21976     21976     21978     21979
     21976     21978     21980     21976     21978     21981     21977     21976     21978
     21978     21981     21982     21978     21981     21983     21979     21978     21980
     21979     21978     21981     21980     21978     21981     21981     21983     21984
     21981     21983     21985     21982     21981     21983     21983     21985     21986
     21983     21985     21987     21983     21985     21988     21984     21983     21985
     21985     21988     21989     21985     21988     21990     21985     21988     21991
     21986     21985     21987     21986     21985     21988     21987     21985     21988
     21988     21991     21992     21988     21991     21993     21988     21991     21994
     21989     21988     21990     21989     21988     21991     21990     21988     21991
     21991     21994     21995     21991     21994     21996     21991     21994     21997
     21992     21991     21993     21992     21991     21994     21993     21991     21994
     21994     21997     21998     21994     21997     21999     21994     21997     22000
     21995     21994     21996     21995     21994     21997     21996     21994     21997
     21998     21997     21999     21998     21997     22000     21999     21997     22000
     22001     22004     22005     22001     22004     22006     22001     22004     22007
     22002     22001     22003     22002     22001     22004     22003     22001     22004
     22004     22007     22008     22004     22007     22009     22004     22007     22010
     22005     22004     22006     22005     22004     22007     22006     22004     22007
     22007     22010     22011     22007     22010     22012     22007     22010     22013
     22008     22007     22009     22008     22007     22010     22009     22007     22010
     22010     22013     22014     22010     22013     22015     22010     22013     22016
     22011     22010     22012     22011     22010     22013     22012     22010     22013
     22013     22016     22017     22013     22016     22018     22013     22016     22019
     22014     22013     22015     22014     22013     22016     22015     22013     22016
     22016     22019     22020     22016     22019     22021     22016     22019     22022
     22017     22016     22018     22017     22016     22019     22018     22016     22019
     22019     22022     22023     22019     22022     22024     22019     22022     22025
     22020     22019     22021     22020     22019     22022     22021     22019     22022
     22022     22025     22026     22022     22025     22027     22022     22025     22028
     22023     22022     22024     22023     22022     22025     22024     22022     22025
     22025     22028     22029     22025     22028     22030     22025     22028     22031
     22026     22025     22027     22026     22025     22028     22027     22025     22028
     22028     22031     22032     22028     22031     22033     22028     22031     22034
     22029     22028     22030     22029     22028     22031     22030     22028     22031
     22031     22034     22035     22031     22034     22036     22031     22034     22037
     22032     22031     22033     22032     22031     22034     22033     22031     22034
     22034     22037     22038     22034     22037     22039     22034     22037     22040
     22035     22034     22036     22035     22034     22037     22036     22034     22037
     22037     22040     22041     22037     22040     22042     22037     22040     22043
     22038     22037     22039     22038     22037     22040     22039     22037     22040
     22040     22043     22044     22040     22043     22045     22040     22043     22046
     22041     22040     22042     22041     22040     22043     22042     22040     22043
     22043     22046     22047     22043     22046     22048     22043     22046     22049
     22044     22043     22045     22044     22043     22046     22045     22043     22046
     22047     22046     22048     22047     22046     22049     22048     22046     22049
     22050     22051     22052     22050     22051     22053     22050     22051     22054
     22050     22055     22056     22050     22055     22057     22050     22055     22058
     22050     22059     22060     22050     22059     22061     22050     22059     22062
     22050     22063     22064     22050     22063     22065     22050     22063     22066
     22051     22050     22055     22051     22050     22059     22051     22050     22063
     22052     22051     22053     22052     22051     22054     22053     22051     22054
     22055     22050     22059     22055     22050     22063     22056     22055     22057
     22056     22055     22058     22057     22055     22058     22059     22050     22063
     22060     22059     22061     22060     22059     22062     22061     22059     22062
     22063     22066     22067     22063     22066     22068     22063     22066     22072
     22064     22063     22065     22064     22063     22066     22065     22063     22066
     22066     22072     22069     22067     22066     22068     22067     22066     22072
     22068     22066     22072     22069     22073     22074     22070     22069     22071
     22070     22069     22072     22070     22069     22073     22071     22069     22072
     22071     22069     22073     22072     22069     22073     22073     22074     22075
     22073     22074     22076     22073     22074     22077     22074     22077     22078
     22074     22077     22079     22074     22077     22085     22075     22074     22076
     22075     22074     22077     22076     22074     22077     22077     22079     22080
     22077     22085     22086     22077     22085     22087     22077     22085     22088
     22078     22077     22079     22078     22077     22085     22079     22077     22085
     22079     22080     22081     22079     22080     22082     22080     22082     22083
     22080     22082     22084     22080     22082     22094     22081     22080     22082
     22082     22094     22095     22082     22094     22096     22082     22094     22097
     22083     22082     22084     22083     22082     22094     22084     22082     22094
     22085     22088     22089     22086     22085     22087     22086     22085     22088
     22087     22085     22088     22088     22089     22090     22088     22089     22091
     22089     22091     22092     22089     22091     22093     22089     22091     22139
     22090     22089     22091     22091     22139     22140     22091     22139     22141
     22091     22139     22142     22092     22091     22093     22092     22091     22139
     22093     22091     22139     22094     22097     22098     22094     22097     22099
     22094     22097     22100     22095     22094     22096     22095     22094     22097
     22096     22094     22097     22097     22100     22101     22097     22100     22102
     22097     22100     22103     22098     22097     22099     22098     22097     22100
     22099     22097     22100     22100     22103     22104     22100     22103     22105
     22100     22103     22106     22101     22100     22102     22101     22100     22103
     22102     22100     22103     22103     22106     22107     22103     22106     22108
     22103     22106     22109     22104     22103     22105     22104     22103     22106
     22105     22103     22106     22106     22109     22110     22106     22109     22111
     22106     22109     22112     22107     22106     22108     22107     22106     22109
     22108     22106     22109     22109     22112     22113     22109     22112     22114
     22110     22109     22111     22110     22109     22112     22111     22109     22112
     22112     22114     22115     22112     22114     22116     22113     22112     22114
     22114     22116     22117     22114     22116     22118     22114     22116     22119
     22115     22114     22116     22116     22119     22120     22116     22119     22121
     22117     22116     22118     22117     22116     22119     22118     22116     22119
     22119     22121     22122     22119     22121     22123     22120     22119     22121
     22121     22123     22124     22121     22123     22125     22121     22123     22126
     22122     22121     22123     22123     22126     22127     22123     22126     22128
     22123     22126     22129     22124     22123     22125     22124     22123     22126
     22125     22123     22126     22126     22129     22130     22126     22129     22131
     22126     22129     22132     22127     22126     22128     22127     22126     22129
     22128     22126     22129     22129     22132     22133     22129     22132     22134
     22129     22132     22135     22130     22129     22131     22130     22129     22132
     22131     22129     22132     22132     22135     22136     22132     22135     22137
     22132     22135     22138     22133     22132     22134     22133     22132     22135
     22134     22132     22135     22136     22135     22137     22136     22135     22138
     22137     22135     22138     22139     22142     22143     22139     22142     22144
     22139     22142     22145     22140     22139     22141     22140     22139     22142
     22141     22139     22142     22142     22145     22146     22142     22145     22147
     22142     22145     22148     22143     22142     22144     22143     22142     22145
     22144     22142     22145     22145     22148     22149     22145     22148     22150
     22145     22148     22151     22146     22145     22147     22146     22145     22148
     22147     22145     22148     22148     22151     22152     22148     22151     22153
     22148     22151     22154     22149     22148     22150     22149     22148     22151
     22150     22148     22151     22151     22154     22155     22151     22154     22156
     22151     22154     22157     22152     22151     22153     22152     22151     22154
     22153     22151     22154     22154     22157     22158     22154     22157     22159
     22154     22157     22160     22155     22154     22156     22155     22154     22157
     22156     22154     22157     22157     22160     22161     22157     22160     22162
     22157     22160     22163     22158     22157     22159     22158     22157     22160
     22159     22157     22160     22160     22163     22164     22160     22163     22165
     22160     22163     22166     22161     22160     22162     22161     22160     22163
     22162     22160     22163     22163     22166     22167     22163     22166     22168
     22163     22166     22169     22164     22163     22165     22164     22163     22166
     22165     22163     22166     22166     22169     22170     22166     22169     22171
     22166     22169     22172     22167     22166     22168     22167     22166     22169
     22168     22166     22169     22169     22172     22173     22169     22172     22174
     22169     22172     22175     22170     22169     22171     22170     22169     22172
     22171     22169     22172     22172     22175     22176     22172     22175     22177
     22172     22175     22178     22173     22172     22174     22173     22172     22175
     22174     22172     22175     22175     22178     22179     22175     22178     22180
     22175     22178     22181     22176     22175     22177     22176     22175     22178
     22177     22175     22178     22178     22181     22182     22178     22181     22183
     22178     22181     22184     22179     22178     22180     22179     22178     22181
     22180     22178     22181     22181     22184     22185     22181     22184     22186
     22181     22184     22187     22182     22181     22183     22182     22181     22184
     22183     22181     22184     22185     22184     22186     22185     22184     22187
     22186     22184     22187     22188     22192     22193     22188     22192     22194
     22188     22192     22197     22189     22188     22190     22189     22188     22191
     22189     22188     22192     22190     22188     22191     22190     22188     22192
     22191     22188     22192     22192     22194     22195     22192     22194     22196
     22192     22197     22198     22192     22197     22199     22192     22197     22203
     22193     22192     22194     22193     22192     22197     22194     22192     22197
     22195     22194     22196     22197     22203     22200     22198     22197     22199
     22198     22197     22203     22199     22197     22203     22200     22204     22205
     22201     22200     22202     22201     22200     22203     22201     22200     22204
     22202     22200     22203     22202     22200     22204     22203     22200     22204
     22204     22205     22206     22204     22205     22207     22204     22205     22208
     22205     22208     22209     22205     22208     22210     22205     22208     22216
     22206     22205     22207     22206     22205     22208     22207     22205     22208
     22208     22210     22211     22208     22216     22217     22208     22216     22218
     22208     22216     22219     22209     22208     22210     22209     22208     22216
     22210     22208     22216     22210     22211     22212     22210     22211     22213
     22211     22213     22214     22211     22213     22215     22211     22213     22225
     22212     22211     22213     22213     22225     22226     22213     22225     22227
     22213     22225     22228     22214     22213     22215     22214     22213     22225
     22215     22213     22225     22216     22219     22220     22217     22216     22218
     22217     22216     22219     22218     22216     22219     22219     22220     22221
     22219     22220     22222     22220     22222     22223     22220     22222     22224
     22220     22222     22272     22221     22220     22222     22222     22272     22273
     22222     22272     22274     22222     22272     22275     22223     22222     22224
     22223     22222     22272     22224     22222     22272     22225     22228     22229
     22225     22228     22230     22225     22228     22231     22226     22225     22227
     22226     22225     22228     22227     22225     22228     22228     22231     22232
     22228     22231     22233     22229     22228     22230     22229     22228     22231
     22230     22228     22231     22231     22233     22234     22231     22233     22235
     22232     22231     22233     22233     22235     22236     22233     22235     22237
     22233     22235     22238     22234     22233     22235     22235     22238     22239
     22235     22238     22240     22236     22235     22237     22236     22235     22238
     22237     22235     22238     22238     22240     22241     22238     22240     22242
     22239     22238     22240     22240     22242     22243     22240     22242     22244
     22240     22242     22245     22241     22240     22242     22242     22245     22246
     22242     22245     22247     22243     22242     22244     22243     22242     22245
     22244     22242     22245     22245     22247     22248     22245     22247     22249
     22246     22245     22247     22247     22249     22250     22247     22249     22251
     22247     22249     22252     22248     22247     22249     22249     22252     22253
     22249     22252     22254     22250     22249     22251     22250     22249     22252
     22251     22249     22252     22252     22254     22255     22252     22254     22256
     22253     22252     22254     22254     22256     22257     22254     22256     22258
     22254     22256     22259     22255     22254     22256     22256     22259     22260
     22256     22259     22261     22256     22259     22262     22257     22256     22258
     22257     22256     22259     22258     22256     22259     22259     22262     22263
     22259     22262     22264     22259     22262     22265     22260     22259     22261
     22260     22259     22262     22261     22259     22262     22262     22265     22266
     22262     22265     22267     22262     22265     22268     22263     22262     22264
     22263     22262     22265     22264     22262     22265     22265     22268     22269
     22265     22268     22270     22265     22268     22271     22266     22265     22267
     22266     22265     22268     22267     22265     22268     22269     22268     22270
     22269     22268     22271     22270     22268     22271     22272     22275     22276
     22272     22275     22277     22272     22275     22278     22273     22272     22274
     22273     22272     22275     22274     22272     22275     22275     22278     22279
     22275     22278     22280     22275     22278     22281     22276     22275     22277
     22276     22275     22278     22277     22275     22278     22278     22281     22282
     22278     22281     22283     22278     22281     22284     22279     22278     22280
     22279     22278     22281     22280     22278     22281     22281     22284     22285
     22281     22284     22286     22281     22284     22287     22282     22281     22283
     22282     22281     22284     22283     22281     22284     22284     22287     22288
     22284     22287     22289     22284     22287     22290     22285     22284     22286
     22285     22284     22287     22286     22284     22287     22287     22290     22291
     22287     22290     22292     22287     22290     22293     22288     22287     22289
     22288     22287     22290     22289     22287     22290     22290     22293     22294
     22290     22293     22295     22290     22293     22296     22291     22290     22292
     22291     22290     22293     22292     22290     22293     22293     22296     22297
     22293     22296     22298     22293     22296     22299     22294     22293     22295
     22294     22293     22296     22295     22293     22296     22296     22299     22300
     22296     22299     22301     22296     22299     22302     22297     22296     22298
     22297     22296     22299     22298     22296     22299     22299     22302     22303
     22299     22302     22304     22299     22302     22305     22300     22299     22301
     22300     22299     22302     22301     22299     22302     22302     22305     22306
     22302     22305     22307     22302     22305     22308     22303     22302     22304
     22303     22302     22305     22304     22302     22305     22305     22308     22309
     22305     22308     22310     22305     22308     22311     22306     22305     22307
     22306     22305     22308     22307     22305     22308     22308     22311     22312
     22308     22311     22313     22308     22311     22314     22309     22308     22310
     22309     22308     22311     22310     22308     22311     22311     22314     22315
     22311     22314     22316     22311     22314     22317     22312     22311     22313
     22312     22311     22314     22313     22311     22314     22314     22317     22318
     22314     22317     22319     22314     22317     22320     22315     22314     22316
     22315     22314     22317     22316     22314     22317     22318     22317     22319
     22318     22317     22320     22319     22317     22320

     61940 !NPHI: dihedrals
         1         5         7         8         1         5         7         9
         1         5        10        11         1         5        10        12
         1         5        10        16         2         1         5         6
         2         1         5         7         2         1         5        10
         3         1         5         6         3         1         5         7
         3         1         5        10         4         1         5         6
         4         1         5         7         4         1         5        10
         5        10        16        13         6         5         7         8
         6         5         7         9         6         5        10        11
         6         5        10        12         6         5        10        16
         7         5        10        11         7         5        10        12
         7         5        10        16         8         7         5        10
         9         7         5        10        10        16        13        14
        10        16        13        15        10        16        13        17
        11        10        16        13        12        10        16        13
        13        17        18        19        13        17        18        20
        13        17        18        21        14        13        17        18
        15        13        17        18        16        13        17        18
        17        18        21        22        17        18        21        23
        17        18        21        29        18        21        23        24
        18        21        29        30        18        21        29        31
        18        21        29        32        19        18        21        22
        19        18        21        23        19        18        21        29
        20        18        21        22        20        18        21        23
        20        18        21        29        21        23        24        25
        21        23        24        26        21        29        32        33
        22        21        23        24        22        21        29        30
        22        21        29        31        22        21        29        32
        23        21        29        30        23        21        29        31
        23        21        29        32        23        24        26        27
        23        24        26        28        23        24        26        38
        24        23        21        29        24        26        38        39
        24        26        38        40        24        26        38        41
        25        24        26        27        25        24        26        28
        25        24        26        38        26        38        41        42
        26        38        41        43        26        38        41        44
        27        26        38        39        27        26        38        40
        27        26        38        41        28        26        38        39
        28        26        38        40        28        26        38        41
        29        32        33        34        29        32        33        35
        30        29        32        33        31        29        32        33
        32        33        35        36        32        33        35        37
        32        33        35        85        33        35        85        86
        33        35        85        87        33        35        85        88
        34        33        35        36        34        33        35        37
        34        33        35        85        35        85        88        89
        35        85        88        90        35        85        88        91
        36        35        85        86        36        35        85        87
        36        35        85        88        37        35        85        86
        37        35        85        87        37        35        85        88
        38        41        44        45        38        41        44        46
        39        38        41        42        39        38        41        43
        39        38        41        44        40        38        41        42
        40        38        41        43        40        38        41        44
        41        44        46        47        41        44        46        48
        42        41        44        45        42        41        44        46
        43        41        44        45        43        41        44        46
        44        46        48        49        44        46        48        50
        44        46        48        51        45        44        46        47
        45        44        46        48        46        48        51        52
        46        48        51        53        47        46        48        49
        47        46        48        50        47        46        48        51
        48        51        53        54        48        51        53        55
        49        48        51        52        49        48        51        53
        50        48        51        52        50        48        51        53
        51        53        55        56        51        53        55        57
        51        53        55        58        52        51        53        54
        52        51        53        55        53        55        58        59
        53        55        58        60        54        53        55        56
        54        53        55        57        54        53        55        58
        55        58        60        61        55        58        60        62
        56        55        58        59        56        55        58        60
        57        55        58        59        57        55        58        60
        58        60        62        63        58        60        62        64
        58        60        62        65        59        58        60        61
        59        58        60        62        60        62        65        66
        60        62        65        67        61        60        62        63
        61        60        62        64        61        60        62        65
        62        65        67        68        62        65        67        69
        63        62        65        66        63        62        65        67
        64        62        65        66        64        62        65        67
        65        67        69        70        65        67        69        71
        65        67        69        72        66        65        67        68
        66        65        67        69        67        69        72        73
        67        69        72        74        67        69        72        75
        68        67        69        70        68        67        69        71
        68        67        69        72        69        72        75        76
        69        72        75        77        69        72        75        78
        70        69        72        73        70        69        72        74
        70        69        72        75        71        69        72        73
        71        69        72        74        71        69        72        75
        72        75        78        79        72        75        78        80
        72        75        78        81        73        72        75        76
        73        72        75        77        73        72        75        78
        74        72        75        76        74        72        75        77
        74        72        75        78        75        78        81        82
        75        78        81        83        75        78        81        84
        76        75        78        79        76        75        78        80
        76        75        78        81        77        75        78        79
        77        75        78        80        77        75        78        81
        79        78        81        82        79        78        81        83
        79        78        81        84        80        78        81        82
        80        78        81        83        80        78        81        84
        85        88        91        92        85        88        91        93
        85        88        91        94        86        85        88        89
        86        85        88        90        86        85        88        91
        87        85        88        89        87        85        88        90
        87        85        88        91        88        91        94        95
        88        91        94        96        88        91        94        97
        89        88        91        92        89        88        91        93
        89        88        91        94        90        88        91        92
        90        88        91        93        90        88        91        94
        91        94        97        98        91        94        97        99
        91        94        97       100        92        91        94        95
        92        91        94        96        92        91        94        97
        93        91        94        95        93        91        94        96
        93        91        94        97        94        97       100       101
        94        97       100       102        94        97       100       103
        95        94        97        98        95        94        97        99
        95        94        97       100        96        94        97        98
        96        94        97        99        96        94        97       100
        97       100       103       104        97       100       103       105
        97       100       103       106        98        97       100       101
        98        97       100       102        98        97       100       103
        99        97       100       101        99        97       100       102
        99        97       100       103       100       103       106       107
       100       103       106       108       100       103       106       109
       101       100       103       104       101       100       103       105
       101       100       103       106       102       100       103       104
       102       100       103       105       102       100       103       106
       103       106       109       110       103       106       109       111
       103       106       109       112       104       103       106       107
       104       103       106       108       104       103       106       109
       105       103       106       107       105       103       106       108
       105       103       106       109       106       109       112       113
       106       109       112       114       106       109       112       115
       107       106       109       110       107       106       109       111
       107       106       109       112       108       106       109       110
       108       106       109       111       108       106       109       112
       109       112       115       116       109       112       115       117
       109       112       115       118       110       109       112       113
       110       109       112       114       110       109       112       115
       111       109       112       113       111       109       112       114
       111       109       112       115       112       115       118       119
       112       115       118       120       112       115       118       121
       113       112       115       116       113       112       115       117
       113       112       115       118       114       112       115       116
       114       112       115       117       114       112       115       118
       115       118       121       122       115       118       121       123
       115       118       121       124       116       115       118       119
       116       115       118       120       116       115       118       121
       117       115       118       119       117       115       118       120
       117       115       118       121       118       121       124       125
       118       121       124       126       118       121       124       127
       119       118       121       122       119       118       121       123
       119       118       121       124       120       118       121       122
       120       118       121       123       120       118       121       124
       121       124       127       128       121       124       127       129
       121       124       127       130       122       121       124       125
       122       121       124       126       122       121       124       127
       123       121       124       125       123       121       124       126
       123       121       124       127       124       127       130       131
       124       127       130       132       124       127       130       133
       125       124       127       128       125       124       127       129
       125       124       127       130       126       124       127       128
       126       124       127       129       126       124       127       130
       128       127       130       131       128       127       130       132
       128       127       130       133       129       127       130       131
       129       127       130       132       129       127       130       133
       134       135       150       151       134       135       150       152
       134       135       150       156       135       134       138       139
       135       134       138       140       135       134       138       141
       135       134       142       143       135       134       142       144
       135       134       142       145       135       134       146       147
       135       134       146       148       135       134       146       149
       135       150       156       153       136       135       134       138
       136       135       134       142       136       135       134       146
       136       135       150       151       136       135       150       152
       136       135       150       156       137       135       134       138
       137       135       134       142       137       135       134       146
       137       135       150       151       137       135       150       152
       137       135       150       156       138       134       135       150
       138       134       142       143       138       134       142       144
       138       134       142       145       138       134       146       147
       138       134       146       148       138       134       146       149
       139       138       134       142       139       138       134       146
       140       138       134       142       140       138       134       146
       141       138       134       142       141       138       134       146
       142       134       135       150       142       134       146       147
       142       134       146       148       142       134       146       149
       143       142       134       146       144       142       134       146
       145       142       134       146       146       134       135       150
       150       156       153       154       150       156       153       155
       150       156       153       157       151       150       156       153
       152       150       156       153       153       157       158       159
       153       157       158       160       153       157       158       161
       154       153       157       158       155       153       157       158
       156       153       157       158       157       158       161       162
       157       158       161       163       157       158       161       169
       158       161       163       164       158       161       169       170
       158       161       169       171       158       161       169       172
       159       158       161       162       159       158       161       163
       159       158       161       169       160       158       161       162
       160       158       161       163       160       158       161       169
       161       163       164       165       161       163       164       166
       161       169       172       173       162       161       163       164
       162       161       169       170       162       161       169       171
       162       161       169       172       163       161       169       170
       163       161       169       171       163       161       169       172
       163       164       166       167       163       164       166       168
       163       164       166       178       164       163       161       169
       164       166       178       179       164       166       178       180
       164       166       178       181       165       164       166       167
       165       164       166       168       165       164       166       178
       166       178       181       182       166       178       181       183
       166       178       181       184       167       166       178       179
       167       166       178       180       167       166       178       181
       168       166       178       179       168       166       178       180
       168       166       178       181       169       172       173       174
       169       172       173       175       170       169       172       173
       171       169       172       173       172       173       175       176
       172       173       175       177       172       173       175       225
       173       175       225       226       173       175       225       227
       173       175       225       228       174       173       175       176
       174       173       175       177       174       173       175       225
       175       225       228       229       175       225       228       230
       175       225       228       231       176       175       225       226
       176       175       225       227       176       175       225       228
       177       175       225       226       177       175       225       227
       177       175       225       228       178       181       184       185
       178       181       184       186       179       178       181       182
       179       178       181       183       179       178       181       184
       180       178       181       182       180       178       181       183
       180       178       181       184       181       184       186       187
       181       184       186       188       182       181       184       185
       182       181       184       186       183       181       184       185
       183       181       184       186       184       186       188       189
       184       186       188       190       184       186       188       191
       185       184       186       187       185       184       186       188
       186       188       191       192       186       188       191       193
       187       186       188       189       187       186       188       190
       187       186       188       191       188       191       193       194
       188       191       193       195       189       188       191       192
       189       188       191       193       190       188       191       192
       190       188       191       193       191       193       195       196
       191       193       195       197       191       193       195       198
       192       191       193       194       192       191       193       195
       193       195       198       199       193       195       198       200
       194       193       195       196       194       193       195       197
       194       193       195       198       195       198       200       201
       195       198       200       202       196       195       198       199
       196       195       198       200       197       195       198       199
       197       195       198       200       198       200       202       203
       198       200       202       204       198       200       202       205
       199       198       200       201       199       198       200       202
       200       202       205       206       200       202       205       207
       201       200       202       203       201       200       202       204
       201       200       202       205       202       205       207       208
       202       205       207       209       203       202       205       206
       203       202       205       207       204       202       205       206
       204       202       205       207       205       207       209       210
       205       207       209       211       205       207       209       212
       206       205       207       208       206       205       207       209
       207       209       212       213       207       209       212       214
       207       209       212       215       208       207       209       210
       208       207       209       211       208       207       209       212
       209       212       215       216       209       212       215       217
       209       212       215       218       210       209       212       213
       210       209       212       214       210       209       212       215
       211       209       212       213       211       209       212       214
       211       209       212       215       212       215       218       219
       212       215       218       220       212       215       218       221
       213       212       215       216       213       212       215       217
       213       212       215       218       214       212       215       216
       214       212       215       217       214       212       215       218
       215       218       221       222       215       218       221       223
       215       218       221       224       216       215       218       219
       216       215       218       220       216       215       218       221
       217       215       218       219       217       215       218       220
       217       215       218       221       219       218       221       222
       219       218       221       223       219       218       221       224
       220       218       221       222       220       218       221       223
       220       218       221       224       225       228       231       232
       225       228       231       233       225       228       231       234
       226       225       228       229       226       225       228       230
       226       225       228       231       227       225       228       229
       227       225       228       230       227       225       228       231
       228       231       234       235       228       231       234       236
       228       231       234       237       229       228       231       232
       229       228       231       233       229       228       231       234
       230       228       231       232       230       228       231       233
       230       228       231       234       231       234       237       238
       231       234       237       239       231       234       237       240
       232       231       234       235       232       231       234       236
       232       231       234       237       233       231       234       235
       233       231       234       236       233       231       234       237
       234       237       240       241       234       237       240       242
       234       237       240       243       235       234       237       238
       235       234       237       239       235       234       237       240
       236       234       237       238       236       234       237       239
       236       234       237       240       237       240       243       244
       237       240       243       245       237       240       243       246
       238       237       240       241       238       237       240       242
       238       237       240       243       239       237       240       241
       239       237       240       242       239       237       240       243
       240       243       246       247       240       243       246       248
       240       243       246       249       241       240       243       244
       241       240       243       245       241       240       243       246
       242       240       243       244       242       240       243       245
       242       240       243       246       243       246       249       250
       243       246       249       251       243       246       249       252
       244       243       246       247       244       243       246       248
       244       243       246       249       245       243       246       247
       245       243       246       248       245       243       246       249
       246       249       252       253       246       249       252       254
       246       249       252       255       247       246       249       250
       247       246       249       251       247       246       249       252
       248       246       249       250       248       246       249       251
       248       246       249       252       249       252       255       256
       249       252       255       257       249       252       255       258
       250       249       252       253       250       249       252       254
       250       249       252       255       251       249       252       253
       251       249       252       254       251       249       252       255
       252       255       258       259       252       255       258       260
       252       255       258       261       253       252       255       256
       253       252       255       257       253       252       255       258
       254       252       255       256       254       252       255       257
       254       252       255       258       255       258       261       262
       255       258       261       263       255       258       261       264
       256       255       258       259       256       255       258       260
       256       255       258       261       257       255       258       259
       257       255       258       260       257       255       258       261
       258       261       264       265       258       261       264       266
       258       261       264       267       259       258       261       262
       259       258       261       263       259       258       261       264
       260       258       261       262       260       258       261       263
       260       258       261       264       261       264       267       268
       261       264       267       269       261       264       267       270
       262       261       264       265       262       261       264       266
       262       261       264       267       263       261       264       265
       263       261       264       266       263       261       264       267
       264       267       270       271       264       267       270       272
       264       267       270       273       265       264       267       268
       265       264       267       269       265       264       267       270
       266       264       267       268       266       264       267       269
       266       264       267       270       268       267       270       271
       268       267       270       272       268       267       270       273
       269       267       270       271       269       267       270       272
       269       267       270       273       274       275       290       291
       274       275       290       292       274       275       290       296
       275       274       278       279       275       274       278       280
       275       274       278       281       275       274       282       283
       275       274       282       284       275       274       282       285
       275       274       286       287       275       274       286       288
       275       274       286       289       275       290       296       293
       276       275       274       278       276       275       274       282
       276       275       274       286       276       275       290       291
       276       275       290       292       276       275       290       296
       277       275       274       278       277       275       274       282
       277       275       274       286       277       275       290       291
       277       275       290       292       277       275       290       296
       278       274       275       290       278       274       282       283
       278       274       282       284       278       274       282       285
       278       274       286       287       278       274       286       288
       278       274       286       289       279       278       274       282
       279       278       274       286       280       278       274       282
       280       278       274       286       281       278       274       282
       281       278       274       286       282       274       275       290
       282       274       286       287       282       274       286       288
       282       274       286       289       283       282       274       286
       284       282       274       286       285       282       274       286
       286       274       275       290       290       296       293       294
       290       296       293       295       290       296       293       297
       291       290       296       293       292       290       296       293
       293       297       298       299       293       297       298       300
       293       297       298       301       294       293       297       298
       295       293       297       298       296       293       297       298
       297       298       301       302       297       298       301       303
       297       298       301       309       298       301       303       304
       298       301       309       310       298       301       309       311
       298       301       309       312       299       298       301       302
       299       298       301       303       299       298       301       309
       300       298       301       302       300       298       301       303
       300       298       301       309       301       303       304       305
       301       303       304       306       301       309       312       313
       302       301       303       304       302       301       309       310
       302       301       309       311       302       301       309       312
       303       301       309       310       303       301       309       311
       303       301       309       312       303       304       306       307
       303       304       306       308       303       304       306       318
       304       303       301       309       304       306       318       319
       304       306       318       320       304       306       318       321
       305       304       306       307       305       304       306       308
       305       304       306       318       306       318       321       322
       306       318       321       323       306       318       321       324
       307       306       318       319       307       306       318       320
       307       306       318       321       308       306       318       319
       308       306       318       320       308       306       318       321
       309       312       313       314       309       312       313       315
       310       309       312       313       311       309       312       313
       312       313       315       316       312       313       315       317
       312       313       315       365       313       315       365       366
       313       315       365       367       313       315       365       368
       314       313       315       316       314       313       315       317
       314       313       315       365       315       365       368       369
       315       365       368       370       315       365       368       371
       316       315       365       366       316       315       365       367
       316       315       365       368       317       315       365       366
       317       315       365       367       317       315       365       368
       318       321       324       325       318       321       324       326
       318       321       324       327       319       318       321       322
       319       318       321       323       319       318       321       324
       320       318       321       322       320       318       321       323
       320       318       321       324       321       324       327       328
       321       324       327       329       321       324       327       330
       322       321       324       325       322       321       324       326
       322       321       324       327       323       321       324       325
       323       321       324       326       323       321       324       327
       324       327       330       331       324       327       330       332
       324       327       330       333       325       324       327       328
       325       324       327       329       325       324       327       330
       326       324       327       328       326       324       327       329
       326       324       327       330       327       330       333       334
       327       330       333       335       327       330       333       336
       328       327       330       331       328       327       330       332
       328       327       330       333       329       327       330       331
       329       327       330       332       329       327       330       333
       330       333       336       337       330       333       336       338
       331       330       333       334       331       330       333       335
       331       330       333       336       332       330       333       334
       332       330       333       335       332       330       333       336
       333       336       338       339       333       336       338       340
       334       333       336       337       334       333       336       338
       335       333       336       337       335       333       336       338
       336       338       340       341       336       338       340       342
       336       338       340       343       337       336       338       339
       337       336       338       340       338       340       343       344
       338       340       343       345       338       340       343       346
       339       338       340       341       339       338       340       342
       339       338       340       343       340       343       346       347
       340       343       346       348       340       343       346       349
       341       340       343       344       341       340       343       345
       341       340       343       346       342       340       343       344
       342       340       343       345       342       340       343       346
       343       346       349       350       343       346       349       351
       343       346       349       352       344       343       346       347
       344       343       346       348       344       343       346       349
       345       343       346       347       345       343       346       348
       345       343       346       349       346       349       352       353
       346       349       352       354       346       349       352       355
       347       346       349       350       347       346       349       351
       347       346       349       352       348       346       349       350
       348       346       349       351       348       346       349       352
       349       352       355       356       349       352       355       357
       349       352       355       358       350       349       352       353
       350       349       352       354       350       349       352       355
       351       349       352       353       351       349       352       354
       351       349       352       355       352       355       358       359
       352       355       358       360       352       355       358       361
       353       352       355       356       353       352       355       357
       353       352       355       358       354       352       355       356
       354       352       355       357       354       352       355       358
       355       358       361       362       355       358       361       363
       355       358       361       364       356       355       358       359
       356       355       358       360       356       355       358       361
       357       355       358       359       357       355       358       360
       357       355       358       361       359       358       361       362
       359       358       361       363       359       358       361       364
       360       358       361       362       360       358       361       363
       360       358       361       364       365       368       371       372
       365       368       371       373       365       368       371       374
       366       365       368       369       366       365       368       370
       366       365       368       371       367       365       368       369
       367       365       368       370       367       365       368       371
       368       371       374       375       368       371       374       376
       368       371       374       377       369       368       371       372
       369       368       371       373       369       368       371       374
       370       368       371       372       370       368       371       373
       370       368       371       374       371       374       377       378
       371       374       377       379       371       374       377       380
       372       371       374       375       372       371       374       376
       372       371       374       377       373       371       374       375
       373       371       374       376       373       371       374       377
       374       377       380       381       374       377       380       382
       374       377       380       383       375       374       377       378
       375       374       377       379       375       374       377       380
       376       374       377       378       376       374       377       379
       376       374       377       380       377       380       383       384
       377       380       383       385       377       380       383       386
       378       377       380       381       378       377       380       382
       378       377       380       383       379       377       380       381
       379       377       380       382       379       377       380       383
       380       383       386       387       380       383       386       388
       380       383       386       389       381       380       383       384
       381       380       383       385       381       380       383       386
       382       380       383       384       382       380       383       385
       382       380       383       386       383       386       389       390
       383       386       389       391       383       386       389       392
       384       383       386       387       384       383       386       388
       384       383       386       389       385       383       386       387
       385       383       386       388       385       383       386       389
       386       389       392       393       386       389       392       394
       386       389       392       395       387       386       389       390
       387       386       389       391       387       386       389       392
       388       386       389       390       388       386       389       391
       388       386       389       392       389       392       395       396
       389       392       395       397       389       392       395       398
       390       389       392       393       390       389       392       394
       390       389       392       395       391       389       392       393
       391       389       392       394       391       389       392       395
       392       395       398       399       392       395       398       400
       392       395       398       401       393       392       395       396
       393       392       395       397       393       392       395       398
       394       392       395       396       394       392       395       397
       394       392       395       398       395       398       401       402
       395       398       401       403       395       398       401       404
       396       395       398       399       396       395       398       400
       396       395       398       401       397       395       398       399
       397       395       398       400       397       395       398       401
       398       401       404       405       398       401       404       406
       398       401       404       407       399       398       401       402
       399       398       401       403       399       398       401       404
       400       398       401       402       400       398       401       403
       400       398       401       404       402       401       404       405
       402       401       404       406       402       401       404       407
       403       401       404       405       403       401       404       406
       403       401       404       407       408       412       415       416
       408       412       415       446       408       454       451       446
       408       454       451       452       408       454       451       453
       409       408       410       411       409       408       412       413
       409       408       412       414       409       408       412       415
       409       408       454       451       409       408       454       455
       409       408       454       456       410       408       412       413
       410       408       412       414       410       408       412       415
       410       408       454       451       410       408       454       455
       410       408       454       456       411       410       408       412
       411       410       408       454       412       408       454       451
       412       408       454       455       412       408       454       456
       412       415       416       417       412       415       416       418
       412       415       446       444       412       415       446       447
       412       415       446       451       413       412       408       454
       413       412       415       416       413       412       415       446
       414       412       408       454       414       412       415       416
       414       412       415       446       415       412       408       454
       415       416       418       419       415       416       418       420
       415       416       418       421       415       446       444       421
       415       446       444       441       415       446       444       445
       415       446       447       448       415       446       447       449
       415       446       447       450       415       446       451       452
       415       446       451       453       415       446       451       454
       416       415       446       444       416       415       446       447
       416       415       446       451       416       418       421       422
       416       418       421       423       416       418       421       444
       417       416       415       446       417       416       418       419
       417       416       418       420       417       416       418       421
       418       416       415       446       418       421       423       424
       418       421       423       425       418       421       423       433
       418       421       444       441       418       421       444       445
       418       421       444       446       419       418       421       422
       419       418       421       423       419       418       421       444
       420       418       421       422       420       418       421       423
       420       418       421       444       421       423       425       426
       421       423       425       427       421       423       425       428
       421       423       433       431       421       423       433       434
       421       423       433       438       421       444       441       438
       421       444       441       442       421       444       441       443
       421       444       446       447       421       444       446       451
       422       421       423       424       422       421       423       425
       422       421       423       433       422       421       444       441
       422       421       444       445       422       421       444       446
       423       421       444       441       423       421       444       445
       423       421       444       446       423       425       428       429
       423       425       428       430       423       425       428       431
       423       433       431       428       423       433       431       432
       423       433       431       457       423       433       434       435
       423       433       434       436       423       433       434       437
       423       433       438       439       423       433       438       440
       423       433       438       441       424       423       421       444
       424       423       425       426       424       423       425       427
       424       423       425       428       424       423       433       431
       424       423       433       434       424       423       433       438
       425       423       421       444       425       423       433       431
       425       423       433       434       425       423       433       438
       425       428       431       432       425       428       431       433
       425       428       431       457       426       425       423       433
       426       425       428       429       426       425       428       430
       426       425       428       431       427       425       423       433
       427       425       428       429       427       425       428       430
       427       425       428       431       428       425       423       433
       428       431       433       434       428       431       433       438
       428       431       457       458       428       431       457       459
       428       431       457       463       429       428       431       432
       429       428       431       433       429       428       431       457
       430       428       431       432       430       428       431       433
       430       428       431       457       431       433       434       435
       431       433       434       436       431       433       434       437
       431       433       438       439       431       433       438       440
       431       433       438       441       431       457       459       460
       431       457       459       461       431       457       459       462
       431       457       463       464       431       457       463       465
       431       457       463       466       432       431       433       434
       432       431       433       438       432       431       457       458
       432       431       457       459       432       431       457       463
       433       423       421       444       433       431       457       458
       433       431       457       459       433       431       457       463
       433       438       441       442       433       438       441       443
       433       438       441       444       434       433       431       457
       434       433       438       439       434       433       438       440
       434       433       438       441       435       434       433       438
       436       434       433       438       437       434       433       438
       438       433       431       457       438       441       444       445
       438       441       444       446       439       438       441       442
       439       438       441       443       439       438       441       444
       440       438       441       442       440       438       441       443
       440       438       441       444       441       444       446       447
       441       444       446       451       442       441       444       445
       442       441       444       446       443       441       444       445
       443       441       444       446       444       446       447       448
       444       446       447       449       444       446       447       450
       444       446       451       452       444       446       451       453
       444       446       451       454       445       444       446       447
       445       444       446       451       446       451       454       455
       446       451       454       456       447       446       451       452
       447       446       451       453       447       446       451       454
       448       447       446       451       449       447       446       451
       450       447       446       451       452       451       454       455
       452       451       454       456       453       451       454       455
       453       451       454       456       457       463       466       467
       457       463       466       468       457       463       466       469
       458       457       459       460       458       457       459       461
       458       457       459       462       458       457       463       464
       458       457       463       465       458       457       463       466
       459       457       463       464       459       457       463       465
       459       457       463       466       460       459       457       463
       461       459       457       463       462       459       457       463
       463       466       469       470       463       466       469       471
       463       466       469       472       464       463       466       467
       464       463       466       468       464       463       466       469
       465       463       466       467       465       463       466       468
       465       463       466       469       466       469       472       473
       466       469       472       474       466       469       472       478
       467       466       469       470       467       466       469       471
       467       466       469       472       468       466       469       470
       468       466       469       471       468       466       469       472
       469       472       474       475       469       472       474       476
       469       472       474       477       469       472       478       479
       469       472       478       480       469       472       478       481
       470       469       472       473       470       469       472       474
       470       469       472       478       471       469       472       473
       471       469       472       474       471       469       472       478
       473       472       474       475       473       472       474       476
       473       472       474       477       473       472       478       479
       473       472       478       480       473       472       478       481
       474       472       478       479       474       472       478       480
       474       472       478       481       475       474       472       478
       476       474       472       478       477       474       472       478
       482       495       498       499       482       495       498       500
       482       495       498       505       483       482       487       488
       483       482       487       489       483       482       487       490
       483       482       491       492       483       482       491       493
       483       482       491       494       483       482       495       496
       483       482       495       497       483       482       495       498
       484       483       482       487       484       483       482       491
       484       483       482       495       485       483       482       487
       485       483       482       491       485       483       482       495
       486       483       482       487       486       483       482       491
       486       483       482       495       487       482       491       492
       487       482       491       493       487       482       491       494
       487       482       495       496       487       482       495       497
       487       482       495       498       488       487       482       491
       488       487       482       495       489       487       482       491
       489       487       482       495       490       487       482       491
       490       487       482       495       491       482       495       496
       491       482       495       497       491       482       495       498
       492       491       482       495       493       491       482       495
       494       491       482       495       495       498       505       501
       496       495       498       499       496       495       498       500
       496       495       498       505       497       495       498       499
       497       495       498       500       497       495       498       505
       498       505       501       502       498       505       501       503
       498       505       501       504       499       498       505       501
       500       498       505       501       501       504       506       507
       501       504       506       508       501       504       506       511
       502       501       504       506       503       501       504       506
       504       506       511       509       504       506       511       512
       504       506       511       513       505       501       504       506
       506       511       509       510       506       511       509       561
       506       511       513       514       506       511       513       515
       506       511       513       517       507       506       511       509
       507       506       511       512       507       506       511       513
       508       506       511       509       508       506       511       512
       508       506       511       513       509       511       513       514
       509       511       513       515       509       511       513       517
       509       561       563       564       509       561       563       565
       509       561       563       566       510       509       511       512
       510       509       511       513       510       509       561       562
       510       509       561       563       511       509       561       562
       511       509       561       563       511       513       515       516
       511       513       517       518       511       513       517       519
       512       511       509       561       512       511       513       514
       512       511       513       515       512       511       513       517
       513       511       509       561       513       517       519       520
       513       517       519       521       514       513       515       516
       514       513       517       518       514       513       517       519
       515       513       517       518       515       513       517       519
       516       515       513       517       517       519       521       522
       517       519       521       523       517       519       521       524
       518       517       519       520       518       517       519       521
       519       521       524       525       519       521       524       526
       519       521       524       527       520       519       521       522
       520       519       521       523       520       519       521       524
       521       524       527       528       521       524       527       529
       521       524       527       530       522       521       524       525
       522       521       524       526       522       521       524       527
       523       521       524       525       523       521       524       526
       523       521       524       527       524       527       530       531
       524       527       530       532       524       527       530       533
       525       524       527       528       525       524       527       529
       525       524       527       530       526       524       527       528
       526       524       527       529       526       524       527       530
       527       530       533       534       527       530       533       535
       527       530       533       536       528       527       530       531
       528       527       530       532       528       527       530       533
       529       527       530       531       529       527       530       532
       529       527       530       533       530       533       536       537
       530       533       536       538       530       533       536       539
       531       530       533       534       531       530       533       535
       531       530       533       536       532       530       533       534
       532       530       533       535       532       530       533       536
       533       536       539       540       533       536       539       541
       533       536       539       542       534       533       536       537
       534       533       536       538       534       533       536       539
       535       533       536       537       535       533       536       538
       535       533       536       539       536       539       542       543
       536       539       542       544       536       539       542       545
       537       536       539       540       537       536       539       541
       537       536       539       542       538       536       539       540
       538       536       539       541       538       536       539       542
       539       542       545       546       539       542       545       547
       539       542       545       548       540       539       542       543
       540       539       542       544       540       539       542       545
       541       539       542       543       541       539       542       544
       541       539       542       545       542       545       548       549
       542       545       548       550       542       545       548       551
       543       542       545       546       543       542       545       547
       543       542       545       548       544       542       545       546
       544       542       545       547       544       542       545       548
       545       548       551       552       545       548       551       553
       545       548       551       554       546       545       548       549
       546       545       548       550       546       545       548       551
       547       545       548       549       547       545       548       550
       547       545       548       551       548       551       554       555
       548       551       554       556       548       551       554       557
       549       548       551       552       549       548       551       553
       549       548       551       554       550       548       551       552
       550       548       551       553       550       548       551       554
       551       554       557       558       551       554       557       559
       551       554       557       560       552       551       554       555
       552       551       554       556       552       551       554       557
       553       551       554       555       553       551       554       556
       553       551       554       557       555       554       557       558
       555       554       557       559       555       554       557       560
       556       554       557       558       556       554       557       559
       556       554       557       560       561       563       566       567
       561       563       566       568       561       563       566       569
       562       561       563       564       562       561       563       565
       562       561       563       566       563       566       569       570
       563       566       569       571       563       566       569       572
       564       563       566       567       564       563       566       568
       564       563       566       569       565       563       566       567
       565       563       566       568       565       563       566       569
       566       569       572       573       566       569       572       574
       566       569       572       575       567       566       569       570
       567       566       569       571       567       566       569       572
       568       566       569       570       568       566       569       571
       568       566       569       572       569       572       575       576
       569       572       575       577       569       572       575       578
       570       569       572       573       570       569       572       574
       570       569       572       575       571       569       572       573
       571       569       572       574       571       569       572       575
       572       575       578       579       572       575       578       580
       572       575       578       581       573       572       575       576
       573       572       575       577       573       572       575       578
       574       572       575       576       574       572       575       577
       574       572       575       578       575       578       581       582
       575       578       581       583       575       578       581       584
       576       575       578       579       576       575       578       580
       576       575       578       581       577       575       578       579
       577       575       578       580       577       575       578       581
       578       581       584       585       578       581       584       586
       579       578       581       582       579       578       581       583
       579       578       581       584       580       578       581       582
       580       578       581       583       580       578       581       584
       581       584       586       587       581       584       586       588
       582       581       584       585       582       581       584       586
       583       581       584       585       583       581       584       586
       584       586       588       589       584       586       588       590
       584       586       588       591       585       584       586       587
       585       584       586       588       586       588       591       592
       586       588       591       593       586       588       591       594
       587       586       588       589       587       586       588       590
       587       586       588       591       588       591       594       595
       588       591       594       596       588       591       594       597
       589       588       591       592       589       588       591       593
       589       588       591       594       590       588       591       592
       590       588       591       593       590       588       591       594
       591       594       597       598       591       594       597       599
       591       594       597       600       592       591       594       595
       592       591       594       596       592       591       594       597
       593       591       594       595       593       591       594       596
       593       591       594       597       594       597       600       601
       594       597       600       602       594       597       600       603
       595       594       597       598       595       594       597       599
       595       594       597       600       596       594       597       598
       596       594       597       599       596       594       597       600
       597       600       603       604       597       600       603       605
       597       600       603       606       598       597       600       601
       598       597       600       602       598       597       600       603
       599       597       600       601       599       597       600       602
       599       597       600       603       600       603       606       607
       600       603       606       608       600       603       606       609
       601       600       603       604       601       600       603       605
       601       600       603       606       602       600       603       604
       602       600       603       605       602       600       603       606
       603       606       609       610       603       606       609       611
       603       606       609       612       604       603       606       607
       604       603       606       608       604       603       606       609
       605       603       606       607       605       603       606       608
       605       603       606       609       607       606       609       610
       607       606       609       611       607       606       609       612
       608       606       609       610       608       606       609       611
       608       606       609       612       613       617       620       621
       613       617       620       622       613       617       620       626
       614       613       617       618       614       613       617       619
       614       613       617       620       615       613       617       618
       615       613       617       619       615       613       617       620
       616       613       617       618       616       613       617       619
       616       613       617       620       617       620       626       623
       618       617       620       621       618       617       620       622
       618       617       620       626       619       617       620       621
       619       617       620       622       619       617       620       626
       620       626       623       624       620       626       623       625
       620       626       623       627       621       620       626       623
       622       620       626       623       623       627       628       629
       623       627       628       630       623       627       628       631
       624       623       627       628       625       623       627       628
       626       623       627       628       627       628       631       632
       627       628       631       633       627       628       631       639
       628       631       633       634       628       631       639       640
       628       631       639       641       628       631       639       642
       629       628       631       632       629       628       631       633
       629       628       631       639       630       628       631       632
       630       628       631       633       630       628       631       639
       631       633       634       635       631       633       634       636
       631       639       642       643       632       631       633       634
       632       631       639       640       632       631       639       641
       632       631       639       642       633       631       639       640
       633       631       639       641       633       631       639       642
       633       634       636       637       633       634       636       638
       633       634       636       648       634       633       631       639
       634       636       648       649       634       636       648       650
       634       636       648       651       635       634       636       637
       635       634       636       638       635       634       636       648
       636       648       651       652       636       648       651       653
       636       648       651       654       637       636       648       649
       637       636       648       650       637       636       648       651
       638       636       648       649       638       636       648       650
       638       636       648       651       639       642       643       644
       639       642       643       645       640       639       642       643
       641       639       642       643       642       643       645       646
       642       643       645       647       642       643       645       695
       643       645       695       696       643       645       695       697
       643       645       695       698       644       643       645       646
       644       643       645       647       644       643       645       695
       645       695       698       699       645       695       698       700
       645       695       698       701       646       645       695       696
       646       645       695       697       646       645       695       698
       647       645       695       696       647       645       695       697
       647       645       695       698       648       651       654       655
       648       651       654       656       649       648       651       652
       649       648       651       653       649       648       651       654
       650       648       651       652       650       648       651       653
       650       648       651       654       651       654       656       657
       651       654       656       658       652       651       654       655
       652       651       654       656       653       651       654       655
       653       651       654       656       654       656       658       659
       654       656       658       660       654       656       658       661
       655       654       656       657       655       654       656       658
       656       658       661       662       656       658       661       663
       657       656       658       659       657       656       658       660
       657       656       658       661       658       661       663       664
       658       661       663       665       659       658       661       662
       659       658       661       663       660       658       661       662
       660       658       661       663       661       663       665       666
       661       663       665       667       661       663       665       668
       662       661       663       664       662       661       663       665
       663       665       668       669       663       665       668       670
       664       663       665       666       664       663       665       667
       664       663       665       668       665       668       670       671
       665       668       670       672       666       665       668       669
       666       665       668       670       667       665       668       669
       667       665       668       670       668       670       672       673
       668       670       672       674       668       670       672       675
       669       668       670       671       669       668       670       672
       670       672       675       676       670       672       675       677
       671       670       672       673       671       670       672       674
       671       670       672       675       672       675       677       678
       672       675       677       679       673       672       675       676
       673       672       675       677       674       672       675       676
       674       672       675       677       675       677       679       680
       675       677       679       681       675       677       679       682
       676       675       677       678       676       675       677       679
       677       679       682       683       677       679       682       684
       677       679       682       685       678       677       679       680
       678       677       679       681       678       677       679       682
       679       682       685       686       679       682       685       687
       679       682       685       688       680       679       682       683
       680       679       682       684       680       679       682       685
       681       679       682       683       681       679       682       684
       681       679       682       685       682       685       688       689
       682       685       688       690       682       685       688       691
       683       682       685       686       683       682       685       687
       683       682       685       688       684       682       685       686
       684       682       685       687       684       682       685       688
       685       688       691       692       685       688       691       693
       685       688       691       694       686       685       688       689
       686       685       688       690       686       685       688       691
       687       685       688       689       687       685       688       690
       687       685       688       691       689       688       691       692
       689       688       691       693       689       688       691       694
       690       688       691       692       690       688       691       693
       690       688       691       694       695       698       701       702
       695       698       701       703       695       698       701       704
       696       695       698       699       696       695       698       700
       696       695       698       701       697       695       698       699
       697       695       698       700       697       695       698       701
       698       701       704       705       698       701       704       706
       698       701       704       707       699       698       701       702
       699       698       701       703       699       698       701       704
       700       698       701       702       700       698       701       703
       700       698       701       704       701       704       707       708
       701       704       707       709       701       704       707       710
       702       701       704       705       702       701       704       706
       702       701       704       707       703       701       704       705
       703       701       704       706       703       701       704       707
       704       707       710       711       704       707       710       712
       704       707       710       713       705       704       707       708
       705       704       707       709       705       704       707       710
       706       704       707       708       706       704       707       709
       706       704       707       710       707       710       713       714
       707       710       713       715       707       710       713       716
       708       707       710       711       708       707       710       712
       708       707       710       713       709       707       710       711
       709       707       710       712       709       707       710       713
       710       713       716       717       710       713       716       718
       710       713       716       719       711       710       713       714
       711       710       713       715       711       710       713       716
       712       710       713       714       712       710       713       715
       712       710       713       716       713       716       719       720
       713       716       719       721       713       716       719       722
       714       713       716       717       714       713       716       718
       714       713       716       719       715       713       716       717
       715       713       716       718       715       713       716       719
       716       719       722       723       716       719       722       724
       716       719       722       725       717       716       719       720
       717       716       719       721       717       716       719       722
       718       716       719       720       718       716       719       721
       718       716       719       722       719       722       725       726
       719       722       725       727       719       722       725       728
       720       719       722       723       720       719       722       724
       720       719       722       725       721       719       722       723
       721       719       722       724       721       719       722       725
       722       725       728       729       722       725       728       730
       722       725       728       731       723       722       725       726
       723       722       725       727       723       722       725       728
       724       722       725       726       724       722       725       727
       724       722       725       728       725       728       731       732
       725       728       731       733       725       728       731       734
       726       725       728       729       726       725       728       730
       726       725       728       731       727       725       728       729
       727       725       728       730       727       725       728       731
       728       731       734       735       728       731       734       736
       728       731       734       737       729       728       731       732
       729       728       731       733       729       728       731       734
       730       728       731       732       730       728       731       733
       730       728       731       734       731       734       737       738
       731       734       737       739       731       734       737       740
       732       731       734       735       732       731       734       736
       732       731       734       737       733       731       734       735
       733       731       734       736       733       731       734       737
       734       737       740       741       734       737       740       742
       734       737       740       743       735       734       737       738
       735       734       737       739       735       734       737       740
       736       734       737       738       736       734       737       739
       736       734       737       740       738       737       740       741
       738       737       740       742       738       737       740       743
       739       737       740       741       739       737       740       742
       739       737       740       743       744       748       751       752
       744       748       751       782       744       790       787       782
       744       790       787       788       744       790       787       789
       745       744       746       747       745       744       748       749
       745       744       748       750       745       744       748       751
       745       744       790       787       745       744       790       791
       745       744       790       792       746       744       748       749
       746       744       748       750       746       744       748       751
       746       744       790       787       746       744       790       791
       746       744       790       792       747       746       744       748
       747       746       744       790       748       744       790       787
       748       744       790       791       748       744       790       792
       748       751       752       753       748       751       752       754
       748       751       782       780       748       751       782       783
       748       751       782       787       749       748       744       790
       749       748       751       752       749       748       751       782
       750       748       744       790       750       748       751       752
       750       748       751       782       751       748       744       790
       751       752       754       755       751       752       754       756
       751       752       754       757       751       782       780       757
       751       782       780       777       751       782       780       781
       751       782       783       784       751       782       783       785
       751       782       783       786       751       782       787       788
       751       782       787       789       751       782       787       790
       752       751       782       780       752       751       782       783
       752       751       782       787       752       754       757       758
       752       754       757       759       752       754       757       780
       753       752       751       782       753       752       754       755
       753       752       754       756       753       752       754       757
       754       752       751       782       754       757       759       760
       754       757       759       761       754       757       759       769
       754       757       780       777       754       757       780       781
       754       757       780       782       755       754       757       758
       755       754       757       759       755       754       757       780
       756       754       757       758       756       754       757       759
       756       754       757       780       757       759       761       762
       757       759       761       763       757       759       761       764
       757       759       769       767       757       759       769       770
       757       759       769       774       757       780       777       774
       757       780       777       778       757       780       777       779
       757       780       782       783       757       780       782       787
       758       757       759       760       758       757       759       761
       758       757       759       769       758       757       780       777
       758       757       780       781       758       757       780       782
       759       757       780       777       759       757       780       781
       759       757       780       782       759       761       764       765
       759       761       764       766       759       761       764       767
       759       769       767       764       759       769       767       768
       759       769       767       793       759       769       770       771
       759       769       770       772       759       769       770       773
       759       769       774       775       759       769       774       776
       759       769       774       777       760       759       757       780
       760       759       761       762       760       759       761       763
       760       759       761       764       760       759       769       767
       760       759       769       770       760       759       769       774
       761       759       757       780       761       759       769       767
       761       759       769       770       761       759       769       774
       761       764       767       768       761       764       767       769
       761       764       767       793       762       761       759       769
       762       761       764       765       762       761       764       766
       762       761       764       767       763       761       759       769
       763       761       764       765       763       761       764       766
       763       761       764       767       764       761       759       769
       764       767       769       770       764       767       769       774
       764       767       793       794       764       767       793       795
       764       767       793       799       765       764       767       768
       765       764       767       769       765       764       767       793
       766       764       767       768       766       764       767       769
       766       764       767       793       767       769       770       771
       767       769       770       772       767       769       770       773
       767       769       774       775       767       769       774       776
       767       769       774       777       767       793       795       796
       767       793       795       797       767       793       795       798
       767       793       799       800       767       793       799       801
       767       793       799       802       768       767       769       770
       768       767       769       774       768       767       793       794
       768       767       793       795       768       767       793       799
       769       759       757       780       769       767       793       794
       769       767       793       795       769       767       793       799
       769       774       777       778       769       774       777       779
       769       774       777       780       770       769       767       793
       770       769       774       775       770       769       774       776
       770       769       774       777       771       770       769       774
       772       770       769       774       773       770       769       774
       774       769       767       793       774       777       780       781
       774       777       780       782       775       774       777       778
       775       774       777       779       775       774       777       780
       776       774       777       778       776       774       777       779
       776       774       777       780       777       780       782       783
       777       780       782       787       778       777       780       781
       778       777       780       782       779       777       780       781
       779       777       780       782       780       782       783       784
       780       782       783       785       780       782       783       786
       780       782       787       788       780       782       787       789
       780       782       787       790       781       780       782       783
       781       780       782       787       782       787       790       791
       782       787       790       792       783       782       787       788
       783       782       787       789       783       782       787       790
       784       783       782       787       785       783       782       787
       786       783       782       787       788       787       790       791
       788       787       790       792       789       787       790       791
       789       787       790       792       793       799       802       803
       793       799       802       804       793       799       802       805
       794       793       795       796       794       793       795       797
       794       793       795       798       794       793       799       800
       794       793       799       801       794       793       799       802
       795       793       799       800       795       793       799       801
       795       793       799       802       796       795       793       799
       797       795       793       799       798       795       793       799
       799       802       805       806       799       802       805       807
       799       802       805       808       800       799       802       803
       800       799       802       804       800       799       802       805
       801       799       802       803       801       799       802       804
       801       799       802       805       802       805       808       809
       802       805       808       810       802       805       808       814
       803       802       805       806       803       802       805       807
       803       802       805       808       804       802       805       806
       804       802       805       807       804       802       805       808
       805       808       810       811       805       808       810       812
       805       808       810       813       805       808       814       815
       805       808       814       816       805       808       814       817
       806       805       808       809       806       805       808       810
       806       805       808       814       807       805       808       809
       807       805       808       810       807       805       808       814
       809       808       810       811       809       808       810       812
       809       808       810       813       809       808       814       815
       809       808       814       816       809       808       814       817
       810       808       814       815       810       808       814       816
       810       808       814       817       811       810       808       814
       812       810       808       814       813       810       808       814
       818       819       834       835       818       819       834       836
       818       819       834       840       819       818       822       823
       819       818       822       824       819       818       822       825
       819       818       826       827       819       818       826       828
       819       818       826       829       819       818       830       831
       819       818       830       832       819       818       830       833
       819       834       840       837       820       819       818       822
       820       819       818       826       820       819       818       830
       820       819       834       835       820       819       834       836
       820       819       834       840       821       819       818       822
       821       819       818       826       821       819       818       830
       821       819       834       835       821       819       834       836
       821       819       834       840       822       818       819       834
       822       818       826       827       822       818       826       828
       822       818       826       829       822       818       830       831
       822       818       830       832       822       818       830       833
       823       822       818       826       823       822       818       830
       824       822       818       826       824       822       818       830
       825       822       818       826       825       822       818       830
       826       818       819       834       826       818       830       831
       826       818       830       832       826       818       830       833
       827       826       818       830       828       826       818       830
       829       826       818       830       830       818       819       834
       834       840       837       838       834       840       837       839
       834       840       837       841       835       834       840       837
       836       834       840       837       837       841       842       843
       837       841       842       844       837       841       842       845
       838       837       841       842       839       837       841       842
       840       837       841       842       841       842       845       846
       841       842       845       847       841       842       845       853
       842       845       847       848       842       845       853       854
       842       845       853       855       842       845       853       856
       843       842       845       846       843       842       845       847
       843       842       845       853       844       842       845       846
       844       842       845       847       844       842       845       853
       845       847       848       849       845       847       848       850
       845       853       856       857       846       845       847       848
       846       845       853       854       846       845       853       855
       846       845       853       856       847       845       853       854
       847       845       853       855       847       845       853       856
       847       848       850       851       847       848       850       852
       847       848       850       862       848       847       845       853
       848       850       862       863       848       850       862       864
       848       850       862       865       849       848       850       851
       849       848       850       852       849       848       850       862
       850       862       865       866       850       862       865       867
       850       862       865       868       851       850       862       863
       851       850       862       864       851       850       862       865
       852       850       862       863       852       850       862       864
       852       850       862       865       853       856       857       858
       853       856       857       859       854       853       856       857
       855       853       856       857       856       857       859       860
       856       857       859       861       856       857       859       909
       857       859       909       910       857       859       909       911
       857       859       909       912       858       857       859       860
       858       857       859       861       858       857       859       909
       859       909       912       913       859       909       912       914
       859       909       912       915       860       859       909       910
       860       859       909       911       860       859       909       912
       861       859       909       910       861       859       909       911
       861       859       909       912       862       865       868       869
       862       865       868       870       863       862       865       866
       863       862       865       867       863       862       865       868
       864       862       865       866       864       862       865       867
       864       862       865       868       865       868       870       871
       865       868       870       872       866       865       868       869
       866       865       868       870       867       865       868       869
       867       865       868       870       868       870       872       873
       868       870       872       874       868       870       872       875
       869       868       870       871       869       868       870       872
       870       872       875       876       870       872       875       877
       871       870       872       873       871       870       872       874
       871       870       872       875       872       875       877       878
       872       875       877       879       873       872       875       876
       873       872       875       877       874       872       875       876
       874       872       875       877       875       877       879       880
       875       877       879       881       875       877       879       882
       876       875       877       878       876       875       877       879
       877       879       882       883       877       879       882       884
       878       877       879       880       878       877       879       881
       878       877       879       882       879       882       884       885
       879       882       884       886       880       879       882       883
       880       879       882       884       881       879       882       883
       881       879       882       884       882       884       886       887
       882       884       886       888       882       884       886       889
       883       882       884       885       883       882       884       886
       884       886       889       890       884       886       889       891
       885       884       886       887       885       884       886       888
       885       884       886       889       886       889       891       892
       886       889       891       893       887       886       889       890
       887       886       889       891       888       886       889       890
       888       886       889       891       889       891       893       894
       889       891       893       895       889       891       893       896
       890       889       891       892       890       889       891       893
       891       893       896       897       891       893       896       898
       891       893       896       899       892       891       893       894
       892       891       893       895       892       891       893       896
       893       896       899       900       893       896       899       901
       893       896       899       902       894       893       896       897
       894       893       896       898       894       893       896       899
       895       893       896       897       895       893       896       898
       895       893       896       899       896       899       902       903
       896       899       902       904       896       899       902       905
       897       896       899       900       897       896       899       901
       897       896       899       902       898       896       899       900
       898       896       899       901       898       896       899       902
       899       902       905       906       899       902       905       907
       899       902       905       908       900       899       902       903
       900       899       902       904       900       899       902       905
       901       899       902       903       901       899       902       904
       901       899       902       905       903       902       905       906
       903       902       905       907       903       902       905       908
       904       902       905       906       904       902       905       907
       904       902       905       908       909       912       915       916
       909       912       915       917       909       912       915       918
       910       909       912       913       910       909       912       914
       910       909       912       915       911       909       912       913
       911       909       912       914       911       909       912       915
       912       915       918       919       912       915       918       920
       912       915       918       921       913       912       915       916
       913       912       915       917       913       912       915       918
       914       912       915       916       914       912       915       917
       914       912       915       918       915       918       921       922
       915       918       921       923       915       918       921       924
       916       915       918       919       916       915       918       920
       916       915       918       921       917       915       918       919
       917       915       918       920       917       915       918       921
       918       921       924       925       918       921       924       926
       918       921       924       927       919       918       921       922
       919       918       921       923       919       918       921       924
       920       918       921       922       920       918       921       923
       920       918       921       924       921       924       927       928
       921       924       927       929       921       924       927       930
       922       921       924       925       922       921       924       926
       922       921       924       927       923       921       924       925
       923       921       924       926       923       921       924       927
       924       927       930       931       924       927       930       932
       924       927       930       933       925       924       927       928
       925       924       927       929       925       924       927       930
       926       924       927       928       926       924       927       929
       926       924       927       930       927       930       933       934
       927       930       933       935       927       930       933       936
       928       927       930       931       928       927       930       932
       928       927       930       933       929       927       930       931
       929       927       930       932       929       927       930       933
       930       933       936       937       930       933       936       938
       930       933       936       939       931       930       933       934
       931       930       933       935       931       930       933       936
       932       930       933       934       932       930       933       935
       932       930       933       936       933       936       939       940
       933       936       939       941       933       936       939       942
       934       933       936       937       934       933       936       938
       934       933       936       939       935       933       936       937
       935       933       936       938       935       933       936       939
       936       939       942       943       936       939       942       944
       936       939       942       945       937       936       939       940
       937       936       939       941       937       936       939       942
       938       936       939       940       938       936       939       941
       938       936       939       942       939       942       945       946
       939       942       945       947       939       942       945       948
       940       939       942       943       940       939       942       944
       940       939       942       945       941       939       942       943
       941       939       942       944       941       939       942       945
       942       945       948       949       942       945       948       950
       942       945       948       951       943       942       945       946
       943       942       945       947       943       942       945       948
       944       942       945       946       944       942       945       947
       944       942       945       948       945       948       951       952
       945       948       951       953       945       948       951       954
       946       945       948       949       946       945       948       950
       946       945       948       951       947       945       948       949
       947       945       948       950       947       945       948       951
       948       951       954       955       948       951       954       956
       948       951       954       957       949       948       951       952
       949       948       951       953       949       948       951       954
       950       948       951       952       950       948       951       953
       950       948       951       954       952       951       954       955
       952       951       954       956       952       951       954       957
       953       951       954       955       953       951       954       956
       953       951       954       957       958       962       965       966
       958       962       965       996       958      1004      1001       996
       958      1004      1001      1002       958      1004      1001      1003
       959       958       960       961       959       958       962       963
       959       958       962       964       959       958       962       965
       959       958      1004      1001       959       958      1004      1005
       959       958      1004      1006       960       958       962       963
       960       958       962       964       960       958       962       965
       960       958      1004      1001       960       958      1004      1005
       960       958      1004      1006       961       960       958       962
       961       960       958      1004       962       958      1004      1001
       962       958      1004      1005       962       958      1004      1006
       962       965       966       967       962       965       966       968
       962       965       996       994       962       965       996       997
       962       965       996      1001       963       962       958      1004
       963       962       965       966       963       962       965       996
       964       962       958      1004       964       962       965       966
       964       962       965       996       965       962       958      1004
       965       966       968       969       965       966       968       970
       965       966       968       971       965       996       994       971
       965       996       994       991       965       996       994       995
       965       996       997       998       965       996       997       999
       965       996       997      1000       965       996      1001      1002
       965       996      1001      1003       965       996      1001      1004
       966       965       996       994       966       965       996       997
       966       965       996      1001       966       968       971       972
       966       968       971       973       966       968       971       994
       967       966       965       996       967       966       968       969
       967       966       968       970       967       966       968       971
       968       966       965       996       968       971       973       974
       968       971       973       975       968       971       973       983
       968       971       994       991       968       971       994       995
       968       971       994       996       969       968       971       972
       969       968       971       973       969       968       971       994
       970       968       971       972       970       968       971       973
       970       968       971       994       971       973       975       976
       971       973       975       977       971       973       975       978
       971       973       983       981       971       973       983       984
       971       973       983       988       971       994       991       988
       971       994       991       992       971       994       991       993
       971       994       996       997       971       994       996      1001
       972       971       973       974       972       971       973       975
       972       971       973       983       972       971       994       991
       972       971       994       995       972       971       994       996
       973       971       994       991       973       971       994       995
       973       971       994       996       973       975       978       979
       973       975       978       980       973       975       978       981
       973       983       981       978       973       983       981       982
       973       983       981      1007       973       983       984       985
       973       983       984       986       973       983       984       987
       973       983       988       989       973       983       988       990
       973       983       988       991       974       973       971       994
       974       973       975       976       974       973       975       977
       974       973       975       978       974       973       983       981
       974       973       983       984       974       973       983       988
       975       973       971       994       975       973       983       981
       975       973       983       984       975       973       983       988
       975       978       981       982       975       978       981       983
       975       978       981      1007       976       975       973       983
       976       975       978       979       976       975       978       980
       976       975       978       981       977       975       973       983
       977       975       978       979       977       975       978       980
       977       975       978       981       978       975       973       983
       978       981       983       984       978       981       983       988
       978       981      1007      1008       978       981      1007      1009
       978       981      1007      1013       979       978       981       982
       979       978       981       983       979       978       981      1007
       980       978       981       982       980       978       981       983
       980       978       981      1007       981       983       984       985
       981       983       984       986       981       983       984       987
       981       983       988       989       981       983       988       990
       981       983       988       991       981      1007      1009      1010
       981      1007      1009      1011       981      1007      1009      1012
       981      1007      1013      1014       981      1007      1013      1015
       981      1007      1013      1016       982       981       983       984
       982       981       983       988       982       981      1007      1008
       982       981      1007      1009       982       981      1007      1013
       983       973       971       994       983       981      1007      1008
       983       981      1007      1009       983       981      1007      1013
       983       988       991       992       983       988       991       993
       983       988       991       994       984       983       981      1007
       984       983       988       989       984       983       988       990
       984       983       988       991       985       984       983       988
       986       984       983       988       987       984       983       988
       988       983       981      1007       988       991       994       995
       988       991       994       996       989       988       991       992
       989       988       991       993       989       988       991       994
       990       988       991       992       990       988       991       993
       990       988       991       994       991       994       996       997
       991       994       996      1001       992       991       994       995
       992       991       994       996       993       991       994       995
       993       991       994       996       994       996       997       998
       994       996       997       999       994       996       997      1000
       994       996      1001      1002       994       996      1001      1003
       994       996      1001      1004       995       994       996       997
       995       994       996      1001       996      1001      1004      1005
       996      1001      1004      1006       997       996      1001      1002
       997       996      1001      1003       997       996      1001      1004
       998       997       996      1001       999       997       996      1001
      1000       997       996      1001      1002      1001      1004      1005
      1002      1001      1004      1006      1003      1001      1004      1005
      1003      1001      1004      1006      1007      1013      1016      1017
      1007      1013      1016      1018      1007      1013      1016      1019
      1008      1007      1009      1010      1008      1007      1009      1011
      1008      1007      1009      1012      1008      1007      1013      1014
      1008      1007      1013      1015      1008      1007      1013      1016
      1009      1007      1013      1014      1009      1007      1013      1015
      1009      1007      1013      1016      1010      1009      1007      1013
      1011      1009      1007      1013      1012      1009      1007      1013
      1013      1016      1019      1020      1013      1016      1019      1021
      1013      1016      1019      1022      1014      1013      1016      1017
      1014      1013      1016      1018      1014      1013      1016      1019
      1015      1013      1016      1017      1015      1013      1016      1018
      1015      1013      1016      1019      1016      1019      1022      1023
      1016      1019      1022      1024      1016      1019      1022      1028
      1017      1016      1019      1020      1017      1016      1019      1021
      1017      1016      1019      1022      1018      1016      1019      1020
      1018      1016      1019      1021      1018      1016      1019      1022
      1019      1022      1024      1025      1019      1022      1024      1026
      1019      1022      1024      1027      1019      1022      1028      1029
      1019      1022      1028      1030      1019      1022      1028      1031
      1020      1019      1022      1023      1020      1019      1022      1024
      1020      1019      1022      1028      1021      1019      1022      1023
      1021      1019      1022      1024      1021      1019      1022      1028
      1023      1022      1024      1025      1023      1022      1024      1026
      1023      1022      1024      1027      1023      1022      1028      1029
      1023      1022      1028      1030      1023      1022      1028      1031
      1024      1022      1028      1029      1024      1022      1028      1030
      1024      1022      1028      1031      1025      1024      1022      1028
      1026      1024      1022      1028      1027      1024      1022      1028
      1032      1036      1039      1040      1032      1036      1039      1070
      1032      1078      1075      1070      1032      1078      1075      1076
      1032      1078      1075      1077      1033      1032      1034      1035
      1033      1032      1036      1037      1033      1032      1036      1038
      1033      1032      1036      1039      1033      1032      1078      1075
      1033      1032      1078      1079      1033      1032      1078      1080
      1034      1032      1036      1037      1034      1032      1036      1038
      1034      1032      1036      1039      1034      1032      1078      1075
      1034      1032      1078      1079      1034      1032      1078      1080
      1035      1034      1032      1036      1035      1034      1032      1078
      1036      1032      1078      1075      1036      1032      1078      1079
      1036      1032      1078      1080      1036      1039      1040      1041
      1036      1039      1040      1042      1036      1039      1070      1068
      1036      1039      1070      1071      1036      1039      1070      1075
      1037      1036      1032      1078      1037      1036      1039      1040
      1037      1036      1039      1070      1038      1036      1032      1078
      1038      1036      1039      1040      1038      1036      1039      1070
      1039      1036      1032      1078      1039      1040      1042      1043
      1039      1040      1042      1044      1039      1040      1042      1045
      1039      1070      1068      1045      1039      1070      1068      1065
      1039      1070      1068      1069      1039      1070      1071      1072
      1039      1070      1071      1073      1039      1070      1071      1074
      1039      1070      1075      1076      1039      1070      1075      1077
      1039      1070      1075      1078      1040      1039      1070      1068
      1040      1039      1070      1071      1040      1039      1070      1075
      1040      1042      1045      1046      1040      1042      1045      1047
      1040      1042      1045      1068      1041      1040      1039      1070
      1041      1040      1042      1043      1041      1040      1042      1044
      1041      1040      1042      1045      1042      1040      1039      1070
      1042      1045      1047      1048      1042      1045      1047      1049
      1042      1045      1047      1057      1042      1045      1068      1065
      1042      1045      1068      1069      1042      1045      1068      1070
      1043      1042      1045      1046      1043      1042      1045      1047
      1043      1042      1045      1068      1044      1042      1045      1046
      1044      1042      1045      1047      1044      1042      1045      1068
      1045      1047      1049      1050      1045      1047      1049      1051
      1045      1047      1049      1052      1045      1047      1057      1055
      1045      1047      1057      1058      1045      1047      1057      1062
      1045      1068      1065      1062      1045      1068      1065      1066
      1045      1068      1065      1067      1045      1068      1070      1071
      1045      1068      1070      1075      1046      1045      1047      1048
      1046      1045      1047      1049      1046      1045      1047      1057
      1046      1045      1068      1065      1046      1045      1068      1069
      1046      1045      1068      1070      1047      1045      1068      1065
      1047      1045      1068      1069      1047      1045      1068      1070
      1047      1049      1052      1053      1047      1049      1052      1054
      1047      1049      1052      1055      1047      1057      1055      1052
      1047      1057      1055      1056      1047      1057      1055      1081
      1047      1057      1058      1059      1047      1057      1058      1060
      1047      1057      1058      1061      1047      1057      1062      1063
      1047      1057      1062      1064      1047      1057      1062      1065
      1048      1047      1045      1068      1048      1047      1049      1050
      1048      1047      1049      1051      1048      1047      1049      1052
      1048      1047      1057      1055      1048      1047      1057      1058
      1048      1047      1057      1062      1049      1047      1045      1068
      1049      1047      1057      1055      1049      1047      1057      1058
      1049      1047      1057      1062      1049      1052      1055      1056
      1049      1052      1055      1057      1049      1052      1055      1081
      1050      1049      1047      1057      1050      1049      1052      1053
      1050      1049      1052      1054      1050      1049      1052      1055
      1051      1049      1047      1057      1051      1049      1052      1053
      1051      1049      1052      1054      1051      1049      1052      1055
      1052      1049      1047      1057      1052      1055      1057      1058
      1052      1055      1057      1062      1052      1055      1081      1082
      1052      1055      1081      1083      1052      1055      1081      1087
      1053      1052      1055      1056      1053      1052      1055      1057
      1053      1052      1055      1081      1054      1052      1055      1056
      1054      1052      1055      1057      1054      1052      1055      1081
      1055      1057      1058      1059      1055      1057      1058      1060
      1055      1057      1058      1061      1055      1057      1062      1063
      1055      1057      1062      1064      1055      1057      1062      1065
      1055      1081      1083      1084      1055      1081      1083      1085
      1055      1081      1083      1086      1055      1081      1087      1088
      1055      1081      1087      1089      1055      1081      1087      1090
      1056      1055      1057      1058      1056      1055      1057      1062
      1056      1055      1081      1082      1056      1055      1081      1083
      1056      1055      1081      1087      1057      1047      1045      1068
      1057      1055      1081      1082      1057      1055      1081      1083
      1057      1055      1081      1087      1057      1062      1065      1066
      1057      1062      1065      1067      1057      1062      1065      1068
      1058      1057      1055      1081      1058      1057      1062      1063
      1058      1057      1062      1064      1058      1057      1062      1065
      1059      1058      1057      1062      1060      1058      1057      1062
      1061      1058      1057      1062      1062      1057      1055      1081
      1062      1065      1068      1069      1062      1065      1068      1070
      1063      1062      1065      1066      1063      1062      1065      1067
      1063      1062      1065      1068      1064      1062      1065      1066
      1064      1062      1065      1067      1064      1062      1065      1068
      1065      1068      1070      1071      1065      1068      1070      1075
      1066      1065      1068      1069      1066      1065      1068      1070
      1067      1065      1068      1069      1067      1065      1068      1070
      1068      1070      1071      1072      1068      1070      1071      1073
      1068      1070      1071      1074      1068      1070      1075      1076
      1068      1070      1075      1077      1068      1070      1075      1078
      1069      1068      1070      1071      1069      1068      1070      1075
      1070      1075      1078      1079      1070      1075      1078      1080
      1071      1070      1075      1076      1071      1070      1075      1077
      1071      1070      1075      1078      1072      1071      1070      1075
      1073      1071      1070      1075      1074      1071      1070      1075
      1076      1075      1078      1079      1076      1075      1078      1080
      1077      1075      1078      1079      1077      1075      1078      1080
      1081      1087      1090      1091      1081      1087      1090      1092
      1081      1087      1090      1093      1082      1081      1083      1084
      1082      1081      1083      1085      1082      1081      1083      1086
      1082      1081      1087      1088      1082      1081      1087      1089
      1082      1081      1087      1090      1083      1081      1087      1088
      1083      1081      1087      1089      1083      1081      1087      1090
      1084      1083      1081      1087      1085      1083      1081      1087
      1086      1083      1081      1087      1087      1090      1093      1094
      1087      1090      1093      1095      1087      1090      1093      1096
      1088      1087      1090      1091      1088      1087      1090      1092
      1088      1087      1090      1093      1089      1087      1090      1091
      1089      1087      1090      1092      1089      1087      1090      1093
      1090      1093      1096      1097      1090      1093      1096      1098
      1090      1093      1096      1102      1091      1090      1093      1094
      1091      1090      1093      1095      1091      1090      1093      1096
      1092      1090      1093      1094      1092      1090      1093      1095
      1092      1090      1093      1096      1093      1096      1098      1099
      1093      1096      1098      1100      1093      1096      1098      1101
      1093      1096      1102      1103      1093      1096      1102      1104
      1093      1096      1102      1105      1094      1093      1096      1097
      1094      1093      1096      1098      1094      1093      1096      1102
      1095      1093      1096      1097      1095      1093      1096      1098
      1095      1093      1096      1102      1097      1096      1098      1099
      1097      1096      1098      1100      1097      1096      1098      1101
      1097      1096      1102      1103      1097      1096      1102      1104
      1097      1096      1102      1105      1098      1096      1102      1103
      1098      1096      1102      1104      1098      1096      1102      1105
      1099      1098      1096      1102      1100      1098      1096      1102
      1101      1098      1096      1102      1106      1110      1113      1114
      1106      1110      1113      1115      1106      1110      1113      1119
      1107      1106      1110      1111      1107      1106      1110      1112
      1107      1106      1110      1113      1108      1106      1110      1111
      1108      1106      1110      1112      1108      1106      1110      1113
      1109      1106      1110      1111      1109      1106      1110      1112
      1109      1106      1110      1113      1110      1113      1119      1116
      1111      1110      1113      1114      1111      1110      1113      1115
      1111      1110      1113      1119      1112      1110      1113      1114
      1112      1110      1113      1115      1112      1110      1113      1119
      1113      1119      1116      1117      1113      1119      1116      1118
      1113      1119      1116      1120      1114      1113      1119      1116
      1115      1113      1119      1116      1116      1120      1121      1122
      1116      1120      1121      1123      1116      1120      1121      1124
      1117      1116      1120      1121      1118      1116      1120      1121
      1119      1116      1120      1121      1120      1121      1124      1125
      1120      1121      1124      1126      1120      1121      1124      1132
      1121      1124      1126      1127      1121      1124      1132      1133
      1121      1124      1132      1134      1121      1124      1132      1135
      1122      1121      1124      1125      1122      1121      1124      1126
      1122      1121      1124      1132      1123      1121      1124      1125
      1123      1121      1124      1126      1123      1121      1124      1132
      1124      1126      1127      1128      1124      1126      1127      1129
      1124      1132      1135      1136      1125      1124      1126      1127
      1125      1124      1132      1133      1125      1124      1132      1134
      1125      1124      1132      1135      1126      1124      1132      1133
      1126      1124      1132      1134      1126      1124      1132      1135
      1126      1127      1129      1130      1126      1127      1129      1131
      1126      1127      1129      1141      1127      1126      1124      1132
      1127      1129      1141      1142      1127      1129      1141      1143
      1127      1129      1141      1144      1128      1127      1129      1130
      1128      1127      1129      1131      1128      1127      1129      1141
      1129      1141      1144      1145      1129      1141      1144      1146
      1129      1141      1144      1147      1130      1129      1141      1142
      1130      1129      1141      1143      1130      1129      1141      1144
      1131      1129      1141      1142      1131      1129      1141      1143
      1131      1129      1141      1144      1132      1135      1136      1137
      1132      1135      1136      1138      1133      1132      1135      1136
      1134      1132      1135      1136      1135      1136      1138      1139
      1135      1136      1138      1140      1135      1136      1138      1188
      1136      1138      1188      1189      1136      1138      1188      1190
      1136      1138      1188      1191      1137      1136      1138      1139
      1137      1136      1138      1140      1137      1136      1138      1188
      1138      1188      1191      1192      1138      1188      1191      1193
      1138      1188      1191      1194      1139      1138      1188      1189
      1139      1138      1188      1190      1139      1138      1188      1191
      1140      1138      1188      1189      1140      1138      1188      1190
      1140      1138      1188      1191      1141      1144      1147      1148
      1141      1144      1147      1149      1141      1144      1147      1150
      1142      1141      1144      1145      1142      1141      1144      1146
      1142      1141      1144      1147      1143      1141      1144      1145
      1143      1141      1144      1146      1143      1141      1144      1147
      1144      1147      1150      1151      1144      1147      1150      1152
      1144      1147      1150      1153      1145      1144      1147      1148
      1145      1144      1147      1149      1145      1144      1147      1150
      1146      1144      1147      1148      1146      1144      1147      1149
      1146      1144      1147      1150      1147      1150      1153      1154
      1147      1150      1153      1155      1147      1150      1153      1156
      1148      1147      1150      1151      1148      1147      1150      1152
      1148      1147      1150      1153      1149      1147      1150      1151
      1149      1147      1150      1152      1149      1147      1150      1153
      1150      1153      1156      1157      1150      1153      1156      1158
      1150      1153      1156      1159      1151      1150      1153      1154
      1151      1150      1153      1155      1151      1150      1153      1156
      1152      1150      1153      1154      1152      1150      1153      1155
      1152      1150      1153      1156      1153      1156      1159      1160
      1153      1156      1159      1161      1154      1153      1156      1157
      1154      1153      1156      1158      1154      1153      1156      1159
      1155      1153      1156      1157      1155      1153      1156      1158
      1155      1153      1156      1159      1156      1159      1161      1162
      1156      1159      1161      1163      1157      1156      1159      1160
      1157      1156      1159      1161      1158      1156      1159      1160
      1158      1156      1159      1161      1159      1161      1163      1164
      1159      1161      1163      1165      1159      1161      1163      1166
      1160      1159      1161      1162      1160      1159      1161      1163
      1161      1163      1166      1167      1161      1163      1166      1168
      1161      1163      1166      1169      1162      1161      1163      1164
      1162      1161      1163      1165      1162      1161      1163      1166
      1163      1166      1169      1170      1163      1166      1169      1171
      1163      1166      1169      1172      1164      1163      1166      1167
      1164      1163      1166      1168      1164      1163      1166      1169
      1165      1163      1166      1167      1165      1163      1166      1168
      1165      1163      1166      1169      1166      1169      1172      1173
      1166      1169      1172      1174      1166      1169      1172      1175
      1167      1166      1169      1170      1167      1166      1169      1171
      1167      1166      1169      1172      1168      1166      1169      1170
      1168      1166      1169      1171      1168      1166      1169      1172
      1169      1172      1175      1176      1169      1172      1175      1177
      1169      1172      1175      1178      1170      1169      1172      1173
      1170      1169      1172      1174      1170      1169      1172      1175
      1171      1169      1172      1173      1171      1169      1172      1174
      1171      1169      1172      1175      1172      1175      1178      1179
      1172      1175      1178      1180      1172      1175      1178      1181
      1173      1172      1175      1176      1173      1172      1175      1177
      1173      1172      1175      1178      1174      1172      1175      1176
      1174      1172      1175      1177      1174      1172      1175      1178
      1175      1178      1181      1182      1175      1178      1181      1183
      1175      1178      1181      1184      1176      1175      1178      1179
      1176      1175      1178      1180      1176      1175      1178      1181
      1177      1175      1178      1179      1177      1175      1178      1180
      1177      1175      1178      1181      1178      1181      1184      1185
      1178      1181      1184      1186      1178      1181      1184      1187
      1179      1178      1181      1182      1179      1178      1181      1183
      1179      1178      1181      1184      1180      1178      1181      1182
      1180      1178      1181      1183      1180      1178      1181      1184
      1182      1181      1184      1185      1182      1181      1184      1186
      1182      1181      1184      1187      1183      1181      1184      1185
      1183      1181      1184      1186      1183      1181      1184      1187
      1188      1191      1194      1195      1188      1191      1194      1196
      1188      1191      1194      1197      1189      1188      1191      1192
      1189      1188      1191      1193      1189      1188      1191      1194
      1190      1188      1191      1192      1190      1188      1191      1193
      1190      1188      1191      1194      1191      1194      1197      1198
      1191      1194      1197      1199      1191      1194      1197      1200
      1192      1191      1194      1195      1192      1191      1194      1196
      1192      1191      1194      1197      1193      1191      1194      1195
      1193      1191      1194      1196      1193      1191      1194      1197
      1194      1197      1200      1201      1194      1197      1200      1202
      1194      1197      1200      1203      1195      1194      1197      1198
      1195      1194      1197      1199      1195      1194      1197      1200
      1196      1194      1197      1198      1196      1194      1197      1199
      1196      1194      1197      1200      1197      1200      1203      1204
      1197      1200      1203      1205      1197      1200      1203      1206
      1198      1197      1200      1201      1198      1197      1200      1202
      1198      1197      1200      1203      1199      1197      1200      1201
      1199      1197      1200      1202      1199      1197      1200      1203
      1200      1203      1206      1207      1200      1203      1206      1208
      1200      1203      1206      1209      1201      1200      1203      1204
      1201      1200      1203      1205      1201      1200      1203      1206
      1202      1200      1203      1204      1202      1200      1203      1205
      1202      1200      1203      1206      1203      1206      1209      1210
      1203      1206      1209      1211      1203      1206      1209      1212
      1204      1203      1206      1207      1204      1203      1206      1208
      1204      1203      1206      1209      1205      1203      1206      1207
      1205      1203      1206      1208      1205      1203      1206      1209
      1206      1209      1212      1213      1206      1209      1212      1214
      1206      1209      1212      1215      1207      1206      1209      1210
      1207      1206      1209      1211      1207      1206      1209      1212
      1208      1206      1209      1210      1208      1206      1209      1211
      1208      1206      1209      1212      1209      1212      1215      1216
      1209      1212      1215      1217      1209      1212      1215      1218
      1210      1209      1212      1213      1210      1209      1212      1214
      1210      1209      1212      1215      1211      1209      1212      1213
      1211      1209      1212      1214      1211      1209      1212      1215
      1212      1215      1218      1219      1212      1215      1218      1220
      1212      1215      1218      1221      1213      1212      1215      1216
      1213      1212      1215      1217      1213      1212      1215      1218
      1214      1212      1215      1216      1214      1212      1215      1217
      1214      1212      1215      1218      1215      1218      1221      1222
      1215      1218      1221      1223      1215      1218      1221      1224
      1216      1215      1218      1219      1216      1215      1218      1220
      1216      1215      1218      1221      1217      1215      1218      1219
      1217      1215      1218      1220      1217      1215      1218      1221
      1218      1221      1224      1225      1218      1221      1224      1226
      1218      1221      1224      1227      1219      1218      1221      1222
      1219      1218      1221      1223      1219      1218      1221      1224
      1220      1218      1221      1222      1220      1218      1221      1223
      1220      1218      1221      1224      1221      1224      1227      1228
      1221      1224      1227      1229      1221      1224      1227      1230
      1222      1221      1224      1225      1222      1221      1224      1226
      1222      1221      1224      1227      1223      1221      1224      1225
      1223      1221      1224      1226      1223      1221      1224      1227
      1224      1227      1230      1231      1224      1227      1230      1232
      1224      1227      1230      1233      1225      1224      1227      1228
      1225      1224      1227      1229      1225      1224      1227      1230
      1226      1224      1227      1228      1226      1224      1227      1229
      1226      1224      1227      1230      1227      1230      1233      1234
      1227      1230      1233      1235      1227      1230      1233      1236
      1228      1227      1230      1231      1228      1227      1230      1232
      1228      1227      1230      1233      1229      1227      1230      1231
      1229      1227      1230      1232      1229      1227      1230      1233
      1231      1230      1233      1234      1231      1230      1233      1235
      1231      1230      1233      1236      1232      1230      1233      1234
      1232      1230      1233      1235      1232      1230      1233      1236
      1237      1250      1253      1254      1237      1250      1253      1255
      1237      1250      1253      1260      1238      1237      1242      1243
      1238      1237      1242      1244      1238      1237      1242      1245
      1238      1237      1246      1247      1238      1237      1246      1248
      1238      1237      1246      1249      1238      1237      1250      1251
      1238      1237      1250      1252      1238      1237      1250      1253
      1239      1238      1237      1242      1239      1238      1237      1246
      1239      1238      1237      1250      1240      1238      1237      1242
      1240      1238      1237      1246      1240      1238      1237      1250
      1241      1238      1237      1242      1241      1238      1237      1246
      1241      1238      1237      1250      1242      1237      1246      1247
      1242      1237      1246      1248      1242      1237      1246      1249
      1242      1237      1250      1251      1242      1237      1250      1252
      1242      1237      1250      1253      1243      1242      1237      1246
      1243      1242      1237      1250      1244      1242      1237      1246
      1244      1242      1237      1250      1245      1242      1237      1246
      1245      1242      1237      1250      1246      1237      1250      1251
      1246      1237      1250      1252      1246      1237      1250      1253
      1247      1246      1237      1250      1248      1246      1237      1250
      1249      1246      1237      1250      1250      1253      1260      1256
      1251      1250      1253      1254      1251      1250      1253      1255
      1251      1250      1253      1260      1252      1250      1253      1254
      1252      1250      1253      1255      1252      1250      1253      1260
      1253      1260      1256      1257      1253      1260      1256      1258
      1253      1260      1256      1259      1254      1253      1260      1256
      1255      1253      1260      1256      1256      1259      1261      1262
      1256      1259      1261      1263      1256      1259      1261      1266
      1257      1256      1259      1261      1258      1256      1259      1261
      1259      1261      1266      1264      1259      1261      1266      1267
      1259      1261      1266      1268      1260      1256      1259      1261
      1261      1266      1264      1265      1261      1266      1264      1316
      1261      1266      1268      1269      1261      1266      1268      1270
      1261      1266      1268      1272      1262      1261      1266      1264
      1262      1261      1266      1267      1262      1261      1266      1268
      1263      1261      1266      1264      1263      1261      1266      1267
      1263      1261      1266      1268      1264      1266      1268      1269
      1264      1266      1268      1270      1264      1266      1268      1272
      1264      1316      1318      1319      1264      1316      1318      1320
      1264      1316      1318      1321      1265      1264      1266      1267
      1265      1264      1266      1268      1265      1264      1316      1317
      1265      1264      1316      1318      1266      1264      1316      1317
      1266      1264      1316      1318      1266      1268      1270      1271
      1266      1268      1272      1273      1266      1268      1272      1274
      1267      1266      1264      1316      1267      1266      1268      1269
      1267      1266      1268      1270      1267      1266      1268      1272
      1268      1266      1264      1316      1268      1272      1274      1275
      1268      1272      1274      1276      1269      1268      1270      1271
      1269      1268      1272      1273      1269      1268      1272      1274
      1270      1268      1272      1273      1270      1268      1272      1274
      1271      1270      1268      1272      1272      1274      1276      1277
      1272      1274      1276      1278      1272      1274      1276      1279
      1273      1272      1274      1275      1273      1272      1274      1276
      1274      1276      1279      1280      1274      1276      1279      1281
      1274      1276      1279      1282      1275      1274      1276      1277
      1275      1274      1276      1278      1275      1274      1276      1279
      1276      1279      1282      1283      1276      1279      1282      1284
      1276      1279      1282      1285      1277      1276      1279      1280
      1277      1276      1279      1281      1277      1276      1279      1282
      1278      1276      1279      1280      1278      1276      1279      1281
      1278      1276      1279      1282      1279      1282      1285      1286
      1279      1282      1285      1287      1279      1282      1285      1288
      1280      1279      1282      1283      1280      1279      1282      1284
      1280      1279      1282      1285      1281      1279      1282      1283
      1281      1279      1282      1284      1281      1279      1282      1285
      1282      1285      1288      1289      1282      1285      1288      1290
      1282      1285      1288      1291      1283      1282      1285      1286
      1283      1282      1285      1287      1283      1282      1285      1288
      1284      1282      1285      1286      1284      1282      1285      1287
      1284      1282      1285      1288      1285      1288      1291      1292
      1285      1288      1291      1293      1285      1288      1291      1294
      1286      1285      1288      1289      1286      1285      1288      1290
      1286      1285      1288      1291      1287      1285      1288      1289
      1287      1285      1288      1290      1287      1285      1288      1291
      1288      1291      1294      1295      1288      1291      1294      1296
      1288      1291      1294      1297      1289      1288      1291      1292
      1289      1288      1291      1293      1289      1288      1291      1294
      1290      1288      1291      1292      1290      1288      1291      1293
      1290      1288      1291      1294      1291      1294      1297      1298
      1291      1294      1297      1299      1291      1294      1297      1300
      1292      1291      1294      1295      1292      1291      1294      1296
      1292      1291      1294      1297      1293      1291      1294      1295
      1293      1291      1294      1296      1293      1291      1294      1297
      1294      1297      1300      1301      1294      1297      1300      1302
      1294      1297      1300      1303      1295      1294      1297      1298
      1295      1294      1297      1299      1295      1294      1297      1300
      1296      1294      1297      1298      1296      1294      1297      1299
      1296      1294      1297      1300      1297      1300      1303      1304
      1297      1300      1303      1305      1297      1300      1303      1306
      1298      1297      1300      1301      1298      1297      1300      1302
      1298      1297      1300      1303      1299      1297      1300      1301
      1299      1297      1300      1302      1299      1297      1300      1303
      1300      1303      1306      1307      1300      1303      1306      1308
      1300      1303      1306      1309      1301      1300      1303      1304
      1301      1300      1303      1305      1301      1300      1303      1306
      1302      1300      1303      1304      1302      1300      1303      1305
      1302      1300      1303      1306      1303      1306      1309      1310
      1303      1306      1309      1311      1303      1306      1309      1312
      1304      1303      1306      1307      1304      1303      1306      1308
      1304      1303      1306      1309      1305      1303      1306      1307
      1305      1303      1306      1308      1305      1303      1306      1309
      1306      1309      1312      1313      1306      1309      1312      1314
      1306      1309      1312      1315      1307      1306      1309      1310
      1307      1306      1309      1311      1307      1306      1309      1312
      1308      1306      1309      1310      1308      1306      1309      1311
      1308      1306      1309      1312      1310      1309      1312      1313
      1310      1309      1312      1314      1310      1309      1312      1315
      1311      1309      1312      1313      1311      1309      1312      1314
      1311      1309      1312      1315      1316      1318      1321      1322
      1316      1318      1321      1323      1316      1318      1321      1324
      1317      1316      1318      1319      1317      1316      1318      1320
      1317      1316      1318      1321      1318      1321      1324      1325
      1318      1321      1324      1326      1318      1321      1324      1327
      1319      1318      1321      1322      1319      1318      1321      1323
      1319      1318      1321      1324      1320      1318      1321      1322
      1320      1318      1321      1323      1320      1318      1321      1324
      1321      1324      1327      1328      1321      1324      1327      1329
      1321      1324      1327      1330      1322      1321      1324      1325
      1322      1321      1324      1326      1322      1321      1324      1327
      1323      1321      1324      1325      1323      1321      1324      1326
      1323      1321      1324      1327      1324      1327      1330      1331
      1324      1327      1330      1332      1324      1327      1330      1333
      1325      1324      1327      1328      1325      1324      1327      1329
      1325      1324      1327      1330      1326      1324      1327      1328
      1326      1324      1327      1329      1326      1324      1327      1330
      1327      1330      1333      1334      1327      1330      1333      1335
      1327      1330      1333      1336      1328      1327      1330      1331
      1328      1327      1330      1332      1328      1327      1330      1333
      1329      1327      1330      1331      1329      1327      1330      1332
      1329      1327      1330      1333      1330      1333      1336      1337
      1330      1333      1336      1338      1330      1333      1336      1339
      1331      1330      1333      1334      1331      1330      1333      1335
      1331      1330      1333      1336      1332      1330      1333      1334
      1332      1330      1333      1335      1332      1330      1333      1336
      1333      1336      1339      1340      1333      1336      1339      1341
      1334      1333      1336      1337      1334      1333      1336      1338
      1334      1333      1336      1339      1335      1333      1336      1337
      1335      1333      1336      1338      1335      1333      1336      1339
      1336      1339      1341      1342      1336      1339      1341      1343
      1337      1336      1339      1340      1337      1336      1339      1341
      1338      1336      1339      1340      1338      1336      1339      1341
      1339      1341      1343      1344      1339      1341      1343      1345
      1339      1341      1343      1346      1340      1339      1341      1342
      1340      1339      1341      1343      1341      1343      1346      1347
      1341      1343      1346      1348      1341      1343      1346      1349
      1342      1341      1343      1344      1342      1341      1343      1345
      1342      1341      1343      1346      1343      1346      1349      1350
      1343      1346      1349      1351      1343      1346      1349      1352
      1344      1343      1346      1347      1344      1343      1346      1348
      1344      1343      1346      1349      1345      1343      1346      1347
      1345      1343      1346      1348      1345      1343      1346      1349
      1346      1349      1352      1353      1346      1349      1352      1354
      1346      1349      1352      1355      1347      1346      1349      1350
      1347      1346      1349      1351      1347      1346      1349      1352
      1348      1346      1349      1350      1348      1346      1349      1351
      1348      1346      1349      1352      1349      1352      1355      1356
      1349      1352      1355      1357      1349      1352      1355      1358
      1350      1349      1352      1353      1350      1349      1352      1354
      1350      1349      1352      1355      1351      1349      1352      1353
      1351      1349      1352      1354      1351      1349      1352      1355
      1352      1355      1358      1359      1352      1355      1358      1360
      1352      1355      1358      1361      1353      1352      1355      1356
      1353      1352      1355      1357      1353      1352      1355      1358
      1354      1352      1355      1356      1354      1352      1355      1357
      1354      1352      1355      1358      1355      1358      1361      1362
      1355      1358      1361      1363      1355      1358      1361      1364
      1356      1355      1358      1359      1356      1355      1358      1360
      1356      1355      1358      1361      1357      1355      1358      1359
      1357      1355      1358      1360      1357      1355      1358      1361
      1358      1361      1364      1365      1358      1361      1364      1366
      1358      1361      1364      1367      1359      1358      1361      1362
      1359      1358      1361      1363      1359      1358      1361      1364
      1360      1358      1361      1362      1360      1358      1361      1363
      1360      1358      1361      1364      1362      1361      1364      1365
      1362      1361      1364      1366      1362      1361      1364      1367
      1363      1361      1364      1365      1363      1361      1364      1366
      1363      1361      1364      1367      1368      1369      1384      1385
      1368      1369      1384      1386      1368      1369      1384      1390
      1369      1368      1372      1373      1369      1368      1372      1374
      1369      1368      1372      1375      1369      1368      1376      1377
      1369      1368      1376      1378      1369      1368      1376      1379
      1369      1368      1380      1381      1369      1368      1380      1382
      1369      1368      1380      1383      1369      1384      1390      1387
      1370      1369      1368      1372      1370      1369      1368      1376
      1370      1369      1368      1380      1370      1369      1384      1385
      1370      1369      1384      1386      1370      1369      1384      1390
      1371      1369      1368      1372      1371      1369      1368      1376
      1371      1369      1368      1380      1371      1369      1384      1385
      1371      1369      1384      1386      1371      1369      1384      1390
      1372      1368      1369      1384      1372      1368      1376      1377
      1372      1368      1376      1378      1372      1368      1376      1379
      1372      1368      1380      1381      1372      1368      1380      1382
      1372      1368      1380      1383      1373      1372      1368      1376
      1373      1372      1368      1380      1374      1372      1368      1376
      1374      1372      1368      1380      1375      1372      1368      1376
      1375      1372      1368      1380      1376      1368      1369      1384
      1376      1368      1380      1381      1376      1368      1380      1382
      1376      1368      1380      1383      1377      1376      1368      1380
      1378      1376      1368      1380      1379      1376      1368      1380
      1380      1368      1369      1384      1384      1390      1387      1388
      1384      1390      1387      1389      1384      1390      1387      1391
      1385      1384      1390      1387      1386      1384      1390      1387
      1387      1391      1392      1393      1387      1391      1392      1394
      1387      1391      1392      1395      1388      1387      1391      1392
      1389      1387      1391      1392      1390      1387      1391      1392
      1391      1392      1395      1396      1391      1392      1395      1397
      1391      1392      1395      1403      1392      1395      1397      1398
      1392      1395      1403      1404      1392      1395      1403      1405
      1392      1395      1403      1406      1393      1392      1395      1396
      1393      1392      1395      1397      1393      1392      1395      1403
      1394      1392      1395      1396      1394      1392      1395      1397
      1394      1392      1395      1403      1395      1397      1398      1399
      1395      1397      1398      1400      1395      1403      1406      1407
      1396      1395      1397      1398      1396      1395      1403      1404
      1396      1395      1403      1405      1396      1395      1403      1406
      1397      1395      1403      1404      1397      1395      1403      1405
      1397      1395      1403      1406      1397      1398      1400      1401
      1397      1398      1400      1402      1397      1398      1400      1412
      1398      1397      1395      1403      1398      1400      1412      1413
      1398      1400      1412      1414      1398      1400      1412      1415
      1399      1398      1400      1401      1399      1398      1400      1402
      1399      1398      1400      1412      1400      1412      1415      1416
      1400      1412      1415      1417      1400      1412      1415      1418
      1401      1400      1412      1413      1401      1400      1412      1414
      1401      1400      1412      1415      1402      1400      1412      1413
      1402      1400      1412      1414      1402      1400      1412      1415
      1403      1406      1407      1408      1403      1406      1407      1409
      1404      1403      1406      1407      1405      1403      1406      1407
      1406      1407      1409      1410      1406      1407      1409      1411
      1406      1407      1409      1459      1407      1409      1459      1460
      1407      1409      1459      1461      1407      1409      1459      1462
      1408      1407      1409      1410      1408      1407      1409      1411
      1408      1407      1409      1459      1409      1459      1462      1463
      1409      1459      1462      1464      1409      1459      1462      1465
      1410      1409      1459      1460      1410      1409      1459      1461
      1410      1409      1459      1462      1411      1409      1459      1460
      1411      1409      1459      1461      1411      1409      1459      1462
      1412      1415      1418      1419      1412      1415      1418      1420
      1412      1415      1418      1421      1413      1412      1415      1416
      1413      1412      1415      1417      1413      1412      1415      1418
      1414      1412      1415      1416      1414      1412      1415      1417
      1414      1412      1415      1418      1415      1418      1421      1422
      1415      1418      1421      1423      1415      1418      1421      1424
      1416      1415      1418      1419      1416      1415      1418      1420
      1416      1415      1418      1421      1417      1415      1418      1419
      1417      1415      1418      1420      1417      1415      1418      1421
      1418      1421      1424      1425      1418      1421      1424      1426
      1418      1421      1424      1427      1419      1418      1421      1422
      1419      1418      1421      1423      1419      1418      1421      1424
      1420      1418      1421      1422      1420      1418      1421      1423
      1420      1418      1421      1424      1421      1424      1427      1428
      1421      1424      1427      1429      1421      1424      1427      1430
      1422      1421      1424      1425      1422      1421      1424      1426
      1422      1421      1424      1427      1423      1421      1424      1425
      1423      1421      1424      1426      1423      1421      1424      1427
      1424      1427      1430      1431      1424      1427      1430      1432
      1425      1424      1427      1428      1425      1424      1427      1429
      1425      1424      1427      1430      1426      1424      1427      1428
      1426      1424      1427      1429      1426      1424      1427      1430
      1427      1430      1432      1433      1427      1430      1432      1434
      1428      1427      1430      1431      1428      1427      1430      1432
      1429      1427      1430      1431      1429      1427      1430      1432
      1430      1432      1434      1435      1430      1432      1434      1436
      1430      1432      1434      1437      1431      1430      1432      1433
      1431      1430      1432      1434      1432      1434      1437      1438
      1432      1434      1437      1439      1432      1434      1437      1440
      1433      1432      1434      1435      1433      1432      1434      1436
      1433      1432      1434      1437      1434      1437      1440      1441
      1434      1437      1440      1442      1434      1437      1440      1443
      1435      1434      1437      1438      1435      1434      1437      1439
      1435      1434      1437      1440      1436      1434      1437      1438
      1436      1434      1437      1439      1436      1434      1437      1440
      1437      1440      1443      1444      1437      1440      1443      1445
      1437      1440      1443      1446      1438      1437      1440      1441
      1438      1437      1440      1442      1438      1437      1440      1443
      1439      1437      1440      1441      1439      1437      1440      1442
      1439      1437      1440      1443      1440      1443      1446      1447
      1440      1443      1446      1448      1440      1443      1446      1449
      1441      1440      1443      1444      1441      1440      1443      1445
      1441      1440      1443      1446      1442      1440      1443      1444
      1442      1440      1443      1445      1442      1440      1443      1446
      1443      1446      1449      1450      1443      1446      1449      1451
      1443      1446      1449      1452      1444      1443      1446      1447
      1444      1443      1446      1448      1444      1443      1446      1449
      1445      1443      1446      1447      1445      1443      1446      1448
      1445      1443      1446      1449      1446      1449      1452      1453
      1446      1449      1452      1454      1446      1449      1452      1455
      1447      1446      1449      1450      1447      1446      1449      1451
      1447      1446      1449      1452      1448      1446      1449      1450
      1448      1446      1449      1451      1448      1446      1449      1452
      1449      1452      1455      1456      1449      1452      1455      1457
      1449      1452      1455      1458      1450      1449      1452      1453
      1450      1449      1452      1454      1450      1449      1452      1455
      1451      1449      1452      1453      1451      1449      1452      1454
      1451      1449      1452      1455      1453      1452      1455      1456
      1453      1452      1455      1457      1453      1452      1455      1458
      1454      1452      1455      1456      1454      1452      1455      1457
      1454      1452      1455      1458      1459      1462      1465      1466
      1459      1462      1465      1467      1459      1462      1465      1468
      1460      1459      1462      1463      1460      1459      1462      1464
      1460      1459      1462      1465      1461      1459      1462      1463
      1461      1459      1462      1464      1461      1459      1462      1465
      1462      1465      1468      1469      1462      1465      1468      1470
      1462      1465      1468      1471      1463      1462      1465      1466
      1463      1462      1465      1467      1463      1462      1465      1468
      1464      1462      1465      1466      1464      1462      1465      1467
      1464      1462      1465      1468      1465      1468      1471      1472
      1465      1468      1471      1473      1465      1468      1471      1474
      1466      1465      1468      1469      1466      1465      1468      1470
      1466      1465      1468      1471      1467      1465      1468      1469
      1467      1465      1468      1470      1467      1465      1468      1471
      1468      1471      1474      1475      1468      1471      1474      1476
      1468      1471      1474      1477      1469      1468      1471      1472
      1469      1468      1471      1473      1469      1468      1471      1474
      1470      1468      1471      1472      1470      1468      1471      1473
      1470      1468      1471      1474      1471      1474      1477      1478
      1471      1474      1477      1479      1471      1474      1477      1480
      1472      1471      1474      1475      1472      1471      1474      1476
      1472      1471      1474      1477      1473      1471      1474      1475
      1473      1471      1474      1476      1473      1471      1474      1477
      1474      1477      1480      1481      1474      1477      1480      1482
      1474      1477      1480      1483      1475      1474      1477      1478
      1475      1474      1477      1479      1475      1474      1477      1480
      1476      1474      1477      1478      1476      1474      1477      1479
      1476      1474      1477      1480      1477      1480      1483      1484
      1477      1480      1483      1485      1477      1480      1483      1486
      1478      1477      1480      1481      1478      1477      1480      1482
      1478      1477      1480      1483      1479      1477      1480      1481
      1479      1477      1480      1482      1479      1477      1480      1483
      1480      1483      1486      1487      1480      1483      1486      1488
      1480      1483      1486      1489      1481      1480      1483      1484
      1481      1480      1483      1485      1481      1480      1483      1486
      1482      1480      1483      1484      1482      1480      1483      1485
      1482      1480      1483      1486      1483      1486      1489      1490
      1483      1486      1489      1491      1483      1486      1489      1492
      1484      1483      1486      1487      1484      1483      1486      1488
      1484      1483      1486      1489      1485      1483      1486      1487
      1485      1483      1486      1488      1485      1483      1486      1489
      1486      1489      1492      1493      1486      1489      1492      1494
      1486      1489      1492      1495      1487      1486      1489      1490
      1487      1486      1489      1491      1487      1486      1489      1492
      1488      1486      1489      1490      1488      1486      1489      1491
      1488      1486      1489      1492      1489      1492      1495      1496
      1489      1492      1495      1497      1489      1492      1495      1498
      1490      1489      1492      1493      1490      1489      1492      1494
      1490      1489      1492      1495      1491      1489      1492      1493
      1491      1489      1492      1494      1491      1489      1492      1495
      1492      1495      1498      1499      1492      1495      1498      1500
      1492      1495      1498      1501      1493      1492      1495      1496
      1493      1492      1495      1497      1493      1492      1495      1498
      1494      1492      1495      1496      1494      1492      1495      1497
      1494      1492      1495      1498      1496      1495      1498      1499
      1496      1495      1498      1500      1496      1495      1498      1501
      1497      1495      1498      1499      1497      1495      1498      1500
      1497      1495      1498      1501      1502      1506      1509      1510
      1502      1506      1509      1540      1502      1548      1545      1540
      1502      1548      1545      1546      1502      1548      1545      1547
      1503      1502      1504      1505      1503      1502      1506      1507
      1503      1502      1506      1508      1503      1502      1506      1509
      1503      1502      1548      1545      1503      1502      1548      1549
      1503      1502      1548      1550      1504      1502      1506      1507
      1504      1502      1506      1508      1504      1502      1506      1509
      1504      1502      1548      1545      1504      1502      1548      1549
      1504      1502      1548      1550      1505      1504      1502      1506
      1505      1504      1502      1548      1506      1502      1548      1545
      1506      1502      1548      1549      1506      1502      1548      1550
      1506      1509      1510      1511      1506      1509      1510      1512
      1506      1509      1540      1538      1506      1509      1540      1541
      1506      1509      1540      1545      1507      1506      1502      1548
      1507      1506      1509      1510      1507      1506      1509      1540
      1508      1506      1502      1548      1508      1506      1509      1510
      1508      1506      1509      1540      1509      1506      1502      1548
      1509      1510      1512      1513      1509      1510      1512      1514
      1509      1510      1512      1515      1509      1540      1538      1515
      1509      1540      1538      1535      1509      1540      1538      1539
      1509      1540      1541      1542      1509      1540      1541      1543
      1509      1540      1541      1544      1509      1540      1545      1546
      1509      1540      1545      1547      1509      1540      1545      1548
      1510      1509      1540      1538      1510      1509      1540      1541
      1510      1509      1540      1545      1510      1512      1515      1516
      1510      1512      1515      1517      1510      1512      1515      1538
      1511      1510      1509      1540      1511      1510      1512      1513
      1511      1510      1512      1514      1511      1510      1512      1515
      1512      1510      1509      1540      1512      1515      1517      1518
      1512      1515      1517      1519      1512      1515      1517      1527
      1512      1515      1538      1535      1512      1515      1538      1539
      1512      1515      1538      1540      1513      1512      1515      1516
      1513      1512      1515      1517      1513      1512      1515      1538
      1514      1512      1515      1516      1514      1512      1515      1517
      1514      1512      1515      1538      1515      1517      1519      1520
      1515      1517      1519      1521      1515      1517      1519      1522
      1515      1517      1527      1525      1515      1517      1527      1528
      1515      1517      1527      1532      1515      1538      1535      1532
      1515      1538      1535      1536      1515      1538      1535      1537
      1515      1538      1540      1541      1515      1538      1540      1545
      1516      1515      1517      1518      1516      1515      1517      1519
      1516      1515      1517      1527      1516      1515      1538      1535
      1516      1515      1538      1539      1516      1515      1538      1540
      1517      1515      1538      1535      1517      1515      1538      1539
      1517      1515      1538      1540      1517      1519      1522      1523
      1517      1519      1522      1524      1517      1519      1522      1525
      1517      1527      1525      1522      1517      1527      1525      1526
      1517      1527      1525      1551      1517      1527      1528      1529
      1517      1527      1528      1530      1517      1527      1528      1531
      1517      1527      1532      1533      1517      1527      1532      1534
      1517      1527      1532      1535      1518      1517      1515      1538
      1518      1517      1519      1520      1518      1517      1519      1521
      1518      1517      1519      1522      1518      1517      1527      1525
      1518      1517      1527      1528      1518      1517      1527      1532
      1519      1517      1515      1538      1519      1517      1527      1525
      1519      1517      1527      1528      1519      1517      1527      1532
      1519      1522      1525      1526      1519      1522      1525      1527
      1519      1522      1525      1551      1520      1519      1517      1527
      1520      1519      1522      1523      1520      1519      1522      1524
      1520      1519      1522      1525      1521      1519      1517      1527
      1521      1519      1522      1523      1521      1519      1522      1524
      1521      1519      1522      1525      1522      1519      1517      1527
      1522      1525      1527      1528      1522      1525      1527      1532
      1522      1525      1551      1552      1522      1525      1551      1553
      1522      1525      1551      1557      1523      1522      1525      1526
      1523      1522      1525      1527      1523      1522      1525      1551
      1524      1522      1525      1526      1524      1522      1525      1527
      1524      1522      1525      1551      1525      1527      1528      1529
      1525      1527      1528      1530      1525      1527      1528      1531
      1525      1527      1532      1533      1525      1527      1532      1534
      1525      1527      1532      1535      1525      1551      1553      1554
      1525      1551      1553      1555      1525      1551      1553      1556
      1525      1551      1557      1558      1525      1551      1557      1559
      1525      1551      1557      1560      1526      1525      1527      1528
      1526      1525      1527      1532      1526      1525      1551      1552
      1526      1525      1551      1553      1526      1525      1551      1557
      1527      1517      1515      1538      1527      1525      1551      1552
      1527      1525      1551      1553      1527      1525      1551      1557
      1527      1532      1535      1536      1527      1532      1535      1537
      1527      1532      1535      1538      1528      1527      1525      1551
      1528      1527      1532      1533      1528      1527      1532      1534
      1528      1527      1532      1535      1529      1528      1527      1532
      1530      1528      1527      1532      1531      1528      1527      1532
      1532      1527      1525      1551      1532      1535      1538      1539
      1532      1535      1538      1540      1533      1532      1535      1536
      1533      1532      1535      1537      1533      1532      1535      1538
      1534      1532      1535      1536      1534      1532      1535      1537
      1534      1532      1535      1538      1535      1538      1540      1541
      1535      1538      1540      1545      1536      1535      1538      1539
      1536      1535      1538      1540      1537      1535      1538      1539
      1537      1535      1538      1540      1538      1540      1541      1542
      1538      1540      1541      1543      1538      1540      1541      1544
      1538      1540      1545      1546      1538      1540      1545      1547
      1538      1540      1545      1548      1539      1538      1540      1541
      1539      1538      1540      1545      1540      1545      1548      1549
      1540      1545      1548      1550      1541      1540      1545      1546
      1541      1540      1545      1547      1541      1540      1545      1548
      1542      1541      1540      1545      1543      1541      1540      1545
      1544      1541      1540      1545      1546      1545      1548      1549
      1546      1545      1548      1550      1547      1545      1548      1549
      1547      1545      1548      1550      1551      1557      1560      1561
      1551      1557      1560      1562      1551      1557      1560      1563
      1552      1551      1553      1554      1552      1551      1553      1555
      1552      1551      1553      1556      1552      1551      1557      1558
      1552      1551      1557      1559      1552      1551      1557      1560
      1553      1551      1557      1558      1553      1551      1557      1559
      1553      1551      1557      1560      1554      1553      1551      1557
      1555      1553      1551      1557      1556      1553      1551      1557
      1557      1560      1563      1564      1557      1560      1563      1565
      1557      1560      1563      1566      1558      1557      1560      1561
      1558      1557      1560      1562      1558      1557      1560      1563
      1559      1557      1560      1561      1559      1557      1560      1562
      1559      1557      1560      1563      1560      1563      1566      1567
      1560      1563      1566      1568      1560      1563      1566      1572
      1561      1560      1563      1564      1561      1560      1563      1565
      1561      1560      1563      1566      1562      1560      1563      1564
      1562      1560      1563      1565      1562      1560      1563      1566
      1563      1566      1568      1569      1563      1566      1568      1570
      1563      1566      1568      1571      1563      1566      1572      1573
      1563      1566      1572      1574      1563      1566      1572      1575
      1564      1563      1566      1567      1564      1563      1566      1568
      1564      1563      1566      1572      1565      1563      1566      1567
      1565      1563      1566      1568      1565      1563      1566      1572
      1567      1566      1568      1569      1567      1566      1568      1570
      1567      1566      1568      1571      1567      1566      1572      1573
      1567      1566      1572      1574      1567      1566      1572      1575
      1568      1566      1572      1573      1568      1566      1572      1574
      1568      1566      1572      1575      1569      1568      1566      1572
      1570      1568      1566      1572      1571      1568      1566      1572
      1576      1580      1583      1584      1576      1580      1583      1614
      1576      1622      1619      1614      1576      1622      1619      1620
      1576      1622      1619      1621      1577      1576      1578      1579
      1577      1576      1580      1581      1577      1576      1580      1582
      1577      1576      1580      1583      1577      1576      1622      1619
      1577      1576      1622      1623      1577      1576      1622      1624
      1578      1576      1580      1581      1578      1576      1580      1582
      1578      1576      1580      1583      1578      1576      1622      1619
      1578      1576      1622      1623      1578      1576      1622      1624
      1579      1578      1576      1580      1579      1578      1576      1622
      1580      1576      1622      1619      1580      1576      1622      1623
      1580      1576      1622      1624      1580      1583      1584      1585
      1580      1583      1584      1586      1580      1583      1614      1612
      1580      1583      1614      1615      1580      1583      1614      1619
      1581      1580      1576      1622      1581      1580      1583      1584
      1581      1580      1583      1614      1582      1580      1576      1622
      1582      1580      1583      1584      1582      1580      1583      1614
      1583      1580      1576      1622      1583      1584      1586      1587
      1583      1584      1586      1588      1583      1584      1586      1589
      1583      1614      1612      1589      1583      1614      1612      1609
      1583      1614      1612      1613      1583      1614      1615      1616
      1583      1614      1615      1617      1583      1614      1615      1618
      1583      1614      1619      1620      1583      1614      1619      1621
      1583      1614      1619      1622      1584      1583      1614      1612
      1584      1583      1614      1615      1584      1583      1614      1619
      1584      1586      1589      1590      1584      1586      1589      1591
      1584      1586      1589      1612      1585      1584      1583      1614
      1585      1584      1586      1587      1585      1584      1586      1588
      1585      1584      1586      1589      1586      1584      1583      1614
      1586      1589      1591      1592      1586      1589      1591      1593
      1586      1589      1591      1601      1586      1589      1612      1609
      1586      1589      1612      1613      1586      1589      1612      1614
      1587      1586      1589      1590      1587      1586      1589      1591
      1587      1586      1589      1612      1588      1586      1589      1590
      1588      1586      1589      1591      1588      1586      1589      1612
      1589      1591      1593      1594      1589      1591      1593      1595
      1589      1591      1593      1596      1589      1591      1601      1599
      1589      1591      1601      1602      1589      1591      1601      1606
      1589      1612      1609      1606      1589      1612      1609      1610
      1589      1612      1609      1611      1589      1612      1614      1615
      1589      1612      1614      1619      1590      1589      1591      1592
      1590      1589      1591      1593      1590      1589      1591      1601
      1590      1589      1612      1609      1590      1589      1612      1613
      1590      1589      1612      1614      1591      1589      1612      1609
      1591      1589      1612      1613      1591      1589      1612      1614
      1591      1593      1596      1597      1591      1593      1596      1598
      1591      1593      1596      1599      1591      1601      1599      1596
      1591      1601      1599      1600      1591      1601      1599      1625
      1591      1601      1602      1603      1591      1601      1602      1604
      1591      1601      1602      1605      1591      1601      1606      1607
      1591      1601      1606      1608      1591      1601      1606      1609
      1592      1591      1589      1612      1592      1591      1593      1594
      1592      1591      1593      1595      1592      1591      1593      1596
      1592      1591      1601      1599      1592      1591      1601      1602
      1592      1591      1601      1606      1593      1591      1589      1612
      1593      1591      1601      1599      1593      1591      1601      1602
      1593      1591      1601      1606      1593      1596      1599      1600
      1593      1596      1599      1601      1593      1596      1599      1625
      1594      1593      1591      1601      1594      1593      1596      1597
      1594      1593      1596      1598      1594      1593      1596      1599
      1595      1593      1591      1601      1595      1593      1596      1597
      1595      1593      1596      1598      1595      1593      1596      1599
      1596      1593      1591      1601      1596      1599      1601      1602
      1596      1599      1601      1606      1596      1599      1625      1626
      1596      1599      1625      1627      1596      1599      1625      1631
      1597      1596      1599      1600      1597      1596      1599      1601
      1597      1596      1599      1625      1598      1596      1599      1600
      1598      1596      1599      1601      1598      1596      1599      1625
      1599      1601      1602      1603      1599      1601      1602      1604
      1599      1601      1602      1605      1599      1601      1606      1607
      1599      1601      1606      1608      1599      1601      1606      1609
      1599      1625      1627      1628      1599      1625      1627      1629
      1599      1625      1627      1630      1599      1625      1631      1632
      1599      1625      1631      1633      1599      1625      1631      1634
      1600      1599      1601      1602      1600      1599      1601      1606
      1600      1599      1625      1626      1600      1599      1625      1627
      1600      1599      1625      1631      1601      1591      1589      1612
      1601      1599      1625      1626      1601      1599      1625      1627
      1601      1599      1625      1631      1601      1606      1609      1610
      1601      1606      1609      1611      1601      1606      1609      1612
      1602      1601      1599      1625      1602      1601      1606      1607
      1602      1601      1606      1608      1602      1601      1606      1609
      1603      1602      1601      1606      1604      1602      1601      1606
      1605      1602      1601      1606      1606      1601      1599      1625
      1606      1609      1612      1613      1606      1609      1612      1614
      1607      1606      1609      1610      1607      1606      1609      1611
      1607      1606      1609      1612      1608      1606      1609      1610
      1608      1606      1609      1611      1608      1606      1609      1612
      1609      1612      1614      1615      1609      1612      1614      1619
      1610      1609      1612      1613      1610      1609      1612      1614
      1611      1609      1612      1613      1611      1609      1612      1614
      1612      1614      1615      1616      1612      1614      1615      1617
      1612      1614      1615      1618      1612      1614      1619      1620
      1612      1614      1619      1621      1612      1614      1619      1622
      1613      1612      1614      1615      1613      1612      1614      1619
      1614      1619      1622      1623      1614      1619      1622      1624
      1615      1614      1619      1620      1615      1614      1619      1621
      1615      1614      1619      1622      1616      1615      1614      1619
      1617      1615      1614      1619      1618      1615      1614      1619
      1620      1619      1622      1623      1620      1619      1622      1624
      1621      1619      1622      1623      1621      1619      1622      1624
      1625      1631      1634      1635      1625      1631      1634      1636
      1625      1631      1634      1637      1626      1625      1627      1628
      1626      1625      1627      1629      1626      1625      1627      1630
      1626      1625      1631      1632      1626      1625      1631      1633
      1626      1625      1631      1634      1627      1625      1631      1632
      1627      1625      1631      1633      1627      1625      1631      1634
      1628      1627      1625      1631      1629      1627      1625      1631
      1630      1627      1625      1631      1631      1634      1637      1638
      1631      1634      1637      1639      1631      1634      1637      1640
      1632      1631      1634      1635      1632      1631      1634      1636
      1632      1631      1634      1637      1633      1631      1634      1635
      1633      1631      1634      1636      1633      1631      1634      1637
      1634      1637      1640      1641      1634      1637      1640      1642
      1634      1637      1640      1646      1635      1634      1637      1638
      1635      1634      1637      1639      1635      1634      1637      1640
      1636      1634      1637      1638      1636      1634      1637      1639
      1636      1634      1637      1640      1637      1640      1642      1643
      1637      1640      1642      1644      1637      1640      1642      1645
      1637      1640      1646      1647      1637      1640      1646      1648
      1637      1640      1646      1649      1638      1637      1640      1641
      1638      1637      1640      1642      1638      1637      1640      1646
      1639      1637      1640      1641      1639      1637      1640      1642
      1639      1637      1640      1646      1641      1640      1642      1643
      1641      1640      1642      1644      1641      1640      1642      1645
      1641      1640      1646      1647      1641      1640      1646      1648
      1641      1640      1646      1649      1642      1640      1646      1647
      1642      1640      1646      1648      1642      1640      1646      1649
      1643      1642      1640      1646      1644      1642      1640      1646
      1645      1642      1640      1646      1650      1654      1657      1658
      1650      1654      1657      1688      1650      1696      1693      1688
      1650      1696      1693      1694      1650      1696      1693      1695
      1651      1650      1652      1653      1651      1650      1654      1655
      1651      1650      1654      1656      1651      1650      1654      1657
      1651      1650      1696      1693      1651      1650      1696      1697
      1651      1650      1696      1698      1652      1650      1654      1655
      1652      1650      1654      1656      1652      1650      1654      1657
      1652      1650      1696      1693      1652      1650      1696      1697
      1652      1650      1696      1698      1653      1652      1650      1654
      1653      1652      1650      1696      1654      1650      1696      1693
      1654      1650      1696      1697      1654      1650      1696      1698
      1654      1657      1658      1659      1654      1657      1658      1660
      1654      1657      1688      1686      1654      1657      1688      1689
      1654      1657      1688      1693      1655      1654      1650      1696
      1655      1654      1657      1658      1655      1654      1657      1688
      1656      1654      1650      1696      1656      1654      1657      1658
      1656      1654      1657      1688      1657      1654      1650      1696
      1657      1658      1660      1661      1657      1658      1660      1662
      1657      1658      1660      1663      1657      1688      1686      1663
      1657      1688      1686      1683      1657      1688      1686      1687
      1657      1688      1689      1690      1657      1688      1689      1691
      1657      1688      1689      1692      1657      1688      1693      1694
      1657      1688      1693      1695      1657      1688      1693      1696
      1658      1657      1688      1686      1658      1657      1688      1689
      1658      1657      1688      1693      1658      1660      1663      1664
      1658      1660      1663      1665      1658      1660      1663      1686
      1659      1658      1657      1688      1659      1658      1660      1661
      1659      1658      1660      1662      1659      1658      1660      1663
      1660      1658      1657      1688      1660      1663      1665      1666
      1660      1663      1665      1667      1660      1663      1665      1675
      1660      1663      1686      1683      1660      1663      1686      1687
      1660      1663      1686      1688      1661      1660      1663      1664
      1661      1660      1663      1665      1661      1660      1663      1686
      1662      1660      1663      1664      1662      1660      1663      1665
      1662      1660      1663      1686      1663      1665      1667      1668
      1663      1665      1667      1669      1663      1665      1667      1670
      1663      1665      1675      1673      1663      1665      1675      1676
      1663      1665      1675      1680      1663      1686      1683      1680
      1663      1686      1683      1684      1663      1686      1683      1685
      1663      1686      1688      1689      1663      1686      1688      1693
      1664      1663      1665      1666      1664      1663      1665      1667
      1664      1663      1665      1675      1664      1663      1686      1683
      1664      1663      1686      1687      1664      1663      1686      1688
      1665      1663      1686      1683      1665      1663      1686      1687
      1665      1663      1686      1688      1665      1667      1670      1671
      1665      1667      1670      1672      1665      1667      1670      1673
      1665      1675      1673      1670      1665      1675      1673      1674
      1665      1675      1673      1699      1665      1675      1676      1677
      1665      1675      1676      1678      1665      1675      1676      1679
      1665      1675      1680      1681      1665      1675      1680      1682
      1665      1675      1680      1683      1666      1665      1663      1686
      1666      1665      1667      1668      1666      1665      1667      1669
      1666      1665      1667      1670      1666      1665      1675      1673
      1666      1665      1675      1676      1666      1665      1675      1680
      1667      1665      1663      1686      1667      1665      1675      1673
      1667      1665      1675      1676      1667      1665      1675      1680
      1667      1670      1673      1674      1667      1670      1673      1675
      1667      1670      1673      1699      1668      1667      1665      1675
      1668      1667      1670      1671      1668      1667      1670      1672
      1668      1667      1670      1673      1669      1667      1665      1675
      1669      1667      1670      1671      1669      1667      1670      1672
      1669      1667      1670      1673      1670      1667      1665      1675
      1670      1673      1675      1676      1670      1673      1675      1680
      1670      1673      1699      1700      1670      1673      1699      1701
      1670      1673      1699      1705      1671      1670      1673      1674
      1671      1670      1673      1675      1671      1670      1673      1699
      1672      1670      1673      1674      1672      1670      1673      1675
      1672      1670      1673      1699      1673      1675      1676      1677
      1673      1675      1676      1678      1673      1675      1676      1679
      1673      1675      1680      1681      1673      1675      1680      1682
      1673      1675      1680      1683      1673      1699      1701      1702
      1673      1699      1701      1703      1673      1699      1701      1704
      1673      1699      1705      1706      1673      1699      1705      1707
      1673      1699      1705      1708      1674      1673      1675      1676
      1674      1673      1675      1680      1674      1673      1699      1700
      1674      1673      1699      1701      1674      1673      1699      1705
      1675      1665      1663      1686      1675      1673      1699      1700
      1675      1673      1699      1701      1675      1673      1699      1705
      1675      1680      1683      1684      1675      1680      1683      1685
      1675      1680      1683      1686      1676      1675      1673      1699
      1676      1675      1680      1681      1676      1675      1680      1682
      1676      1675      1680      1683      1677      1676      1675      1680
      1678      1676      1675      1680      1679      1676      1675      1680
      1680      1675      1673      1699      1680      1683      1686      1687
      1680      1683      1686      1688      1681      1680      1683      1684
      1681      1680      1683      1685      1681      1680      1683      1686
      1682      1680      1683      1684      1682      1680      1683      1685
      1682      1680      1683      1686      1683      1686      1688      1689
      1683      1686      1688      1693      1684      1683      1686      1687
      1684      1683      1686      1688      1685      1683      1686      1687
      1685      1683      1686      1688      1686      1688      1689      1690
      1686      1688      1689      1691      1686      1688      1689      1692
      1686      1688      1693      1694      1686      1688      1693      1695
      1686      1688      1693      1696      1687      1686      1688      1689
      1687      1686      1688      1693      1688      1693      1696      1697
      1688      1693      1696      1698      1689      1688      1693      1694
      1689      1688      1693      1695      1689      1688      1693      1696
      1690      1689      1688      1693      1691      1689      1688      1693
      1692      1689      1688      1693      1694      1693      1696      1697
      1694      1693      1696      1698      1695      1693      1696      1697
      1695      1693      1696      1698      1699      1705      1708      1709
      1699      1705      1708      1710      1699      1705      1708      1711
      1700      1699      1701      1702      1700      1699      1701      1703
      1700      1699      1701      1704      1700      1699      1705      1706
      1700      1699      1705      1707      1700      1699      1705      1708
      1701      1699      1705      1706      1701      1699      1705      1707
      1701      1699      1705      1708      1702      1701      1699      1705
      1703      1701      1699      1705      1704      1701      1699      1705
      1705      1708      1711      1712      1705      1708      1711      1713
      1705      1708      1711      1714      1706      1705      1708      1709
      1706      1705      1708      1710      1706      1705      1708      1711
      1707      1705      1708      1709      1707      1705      1708      1710
      1707      1705      1708      1711      1708      1711      1714      1715
      1708      1711      1714      1716      1708      1711      1714      1720
      1709      1708      1711      1712      1709      1708      1711      1713
      1709      1708      1711      1714      1710      1708      1711      1712
      1710      1708      1711      1713      1710      1708      1711      1714
      1711      1714      1716      1717      1711      1714      1716      1718
      1711      1714      1716      1719      1711      1714      1720      1721
      1711      1714      1720      1722      1711      1714      1720      1723
      1712      1711      1714      1715      1712      1711      1714      1716
      1712      1711      1714      1720      1713      1711      1714      1715
      1713      1711      1714      1716      1713      1711      1714      1720
      1715      1714      1716      1717      1715      1714      1716      1718
      1715      1714      1716      1719      1715      1714      1720      1721
      1715      1714      1720      1722      1715      1714      1720      1723
      1716      1714      1720      1721      1716      1714      1720      1722
      1716      1714      1720      1723      1717      1716      1714      1720
      1718      1716      1714      1720      1719      1716      1714      1720
      1724      1728      1730      1731      1724      1728      1730      1732
      1724      1728      1733      1734      1724      1728      1733      1735
      1724      1728      1733      1739      1725      1724      1728      1729
      1725      1724      1728      1730      1725      1724      1728      1733
      1726      1724      1728      1729      1726      1724      1728      1730
      1726      1724      1728      1733      1727      1724      1728      1729
      1727      1724      1728      1730      1727      1724      1728      1733
      1728      1733      1739      1736      1729      1728      1730      1731
      1729      1728      1730      1732      1729      1728      1733      1734
      1729      1728      1733      1735      1729      1728      1733      1739
      1730      1728      1733      1734      1730      1728      1733      1735
      1730      1728      1733      1739      1731      1730      1728      1733
      1732      1730      1728      1733      1733      1739      1736      1737
      1733      1739      1736      1738      1733      1739      1736      1740
      1734      1733      1739      1736      1735      1733      1739      1736
      1736      1740      1741      1742      1736      1740      1741      1743
      1736      1740      1741      1744      1737      1736      1740      1741
      1738      1736      1740      1741      1739      1736      1740      1741
      1740      1741      1744      1745      1740      1741      1744      1746
      1740      1741      1744      1752      1741      1744      1746      1747
      1741      1744      1752      1753      1741      1744      1752      1754
      1741      1744      1752      1755      1742      1741      1744      1745
      1742      1741      1744      1746      1742      1741      1744      1752
      1743      1741      1744      1745      1743      1741      1744      1746
      1743      1741      1744      1752      1744      1746      1747      1748
      1744      1746      1747      1749      1744      1752      1755      1756
      1745      1744      1746      1747      1745      1744      1752      1753
      1745      1744      1752      1754      1745      1744      1752      1755
      1746      1744      1752      1753      1746      1744      1752      1754
      1746      1744      1752      1755      1746      1747      1749      1750
      1746      1747      1749      1751      1746      1747      1749      1761
      1747      1746      1744      1752      1747      1749      1761      1762
      1747      1749      1761      1763      1747      1749      1761      1764
      1748      1747      1749      1750      1748      1747      1749      1751
      1748      1747      1749      1761      1749      1761      1764      1765
      1749      1761      1764      1766      1749      1761      1764      1767
      1750      1749      1761      1762      1750      1749      1761      1763
      1750      1749      1761      1764      1751      1749      1761      1762
      1751      1749      1761      1763      1751      1749      1761      1764
      1752      1755      1756      1757      1752      1755      1756      1758
      1753      1752      1755      1756      1754      1752      1755      1756
      1755      1756      1758      1759      1755      1756      1758      1760
      1755      1756      1758      1808      1756      1758      1808      1809
      1756      1758      1808      1810      1756      1758      1808      1811
      1757      1756      1758      1759      1757      1756      1758      1760
      1757      1756      1758      1808      1758      1808      1811      1812
      1758      1808      1811      1813      1758      1808      1811      1814
      1759      1758      1808      1809      1759      1758      1808      1810
      1759      1758      1808      1811      1760      1758      1808      1809
      1760      1758      1808      1810      1760      1758      1808      1811
      1761      1764      1767      1768      1761      1764      1767      1769
      1762      1761      1764      1765      1762      1761      1764      1766
      1762      1761      1764      1767      1763      1761      1764      1765
      1763      1761      1764      1766      1763      1761      1764      1767
      1764      1767      1769      1770      1764      1767      1769      1771
      1765      1764      1767      1768      1765      1764      1767      1769
      1766      1764      1767      1768      1766      1764      1767      1769
      1767      1769      1771      1772      1767      1769      1771      1773
      1767      1769      1771      1774      1768      1767      1769      1770
      1768      1767      1769      1771      1769      1771      1774      1775
      1769      1771      1774      1776      1770      1769      1771      1772
      1770      1769      1771      1773      1770      1769      1771      1774
      1771      1774      1776      1777      1771      1774      1776      1778
      1772      1771      1774      1775      1772      1771      1774      1776
      1773      1771      1774      1775      1773      1771      1774      1776
      1774      1776      1778      1779      1774      1776      1778      1780
      1774      1776      1778      1781      1775      1774      1776      1777
      1775      1774      1776      1778      1776      1778      1781      1782
      1776      1778      1781      1783      1777      1776      1778      1779
      1777      1776      1778      1780      1777      1776      1778      1781
      1778      1781      1783      1784      1778      1781      1783      1785
      1779      1778      1781      1782      1779      1778      1781      1783
      1780      1778      1781      1782      1780      1778      1781      1783
      1781      1783      1785      1786      1781      1783      1785      1787
      1781      1783      1785      1788      1782      1781      1783      1784
      1782      1781      1783      1785      1783      1785      1788      1789
      1783      1785      1788      1790      1784      1783      1785      1786
      1784      1783      1785      1787      1784      1783      1785      1788
      1785      1788      1790      1791      1785      1788      1790      1792
      1786      1785      1788      1789      1786      1785      1788      1790
      1787      1785      1788      1789      1787      1785      1788      1790
      1788      1790      1792      1793      1788      1790      1792      1794
      1788      1790      1792      1795      1789      1788      1790      1791
      1789      1788      1790      1792      1790      1792      1795      1796
      1790      1792      1795      1797      1790      1792      1795      1798
      1791      1790      1792      1793      1791      1790      1792      1794
      1791      1790      1792      1795      1792      1795      1798      1799
      1792      1795      1798      1800      1792      1795      1798      1801
      1793      1792      1795      1796      1793      1792      1795      1797
      1793      1792      1795      1798      1794      1792      1795      1796
      1794      1792      1795      1797      1794      1792      1795      1798
      1795      1798      1801      1802      1795      1798      1801      1803
      1795      1798      1801      1804      1796      1795      1798      1799
      1796      1795      1798      1800      1796      1795      1798      1801
      1797      1795      1798      1799      1797      1795      1798      1800
      1797      1795      1798      1801      1798      1801      1804      1805
      1798      1801      1804      1806      1798      1801      1804      1807
      1799      1798      1801      1802      1799      1798      1801      1803
      1799      1798      1801      1804      1800      1798      1801      1802
      1800      1798      1801      1803      1800      1798      1801      1804
      1802      1801      1804      1805      1802      1801      1804      1806
      1802      1801      1804      1807      1803      1801      1804      1805
      1803      1801      1804      1806      1803      1801      1804      1807
      1808      1811      1814      1815      1808      1811      1814      1816
      1808      1811      1814      1817      1809      1808      1811      1812
      1809      1808      1811      1813      1809      1808      1811      1814
      1810      1808      1811      1812      1810      1808      1811      1813
      1810      1808      1811      1814      1811      1814      1817      1818
      1811      1814      1817      1819      1811      1814      1817      1820
      1812      1811      1814      1815      1812      1811      1814      1816
      1812      1811      1814      1817      1813      1811      1814      1815
      1813      1811      1814      1816      1813      1811      1814      1817
      1814      1817      1820      1821      1814      1817      1820      1822
      1814      1817      1820      1823      1815      1814      1817      1818
      1815      1814      1817      1819      1815      1814      1817      1820
      1816      1814      1817      1818      1816      1814      1817      1819
      1816      1814      1817      1820      1817      1820      1823      1824
      1817      1820      1823      1825      1817      1820      1823      1826
      1818      1817      1820      1821      1818      1817      1820      1822
      1818      1817      1820      1823      1819      1817      1820      1821
      1819      1817      1820      1822      1819      1817      1820      1823
      1820      1823      1826      1827      1820      1823      1826      1828
      1820      1823      1826      1829      1821      1820      1823      1824
      1821      1820      1823      1825      1821      1820      1823      1826
      1822      1820      1823      1824      1822      1820      1823      1825
      1822      1820      1823      1826      1823      1826      1829      1830
      1823      1826      1829      1831      1823      1826      1829      1832
      1824      1823      1826      1827      1824      1823      1826      1828
      1824      1823      1826      1829      1825      1823      1826      1827
      1825      1823      1826      1828      1825      1823      1826      1829
      1826      1829      1832      1833      1826      1829      1832      1834
      1826      1829      1832      1835      1827      1826      1829      1830
      1827      1826      1829      1831      1827      1826      1829      1832
      1828      1826      1829      1830      1828      1826      1829      1831
      1828      1826      1829      1832      1829      1832      1835      1836
      1829      1832      1835      1837      1829      1832      1835      1838
      1830      1829      1832      1833      1830      1829      1832      1834
      1830      1829      1832      1835      1831      1829      1832      1833
      1831      1829      1832      1834      1831      1829      1832      1835
      1832      1835      1838      1839      1832      1835      1838      1840
      1832      1835      1838      1841      1833      1832      1835      1836
      1833      1832      1835      1837      1833      1832      1835      1838
      1834      1832      1835      1836      1834      1832      1835      1837
      1834      1832      1835      1838      1835      1838      1841      1842
      1835      1838      1841      1843      1835      1838      1841      1844
      1836      1835      1838      1839      1836      1835      1838      1840
      1836      1835      1838      1841      1837      1835      1838      1839
      1837      1835      1838      1840      1837      1835      1838      1841
      1838      1841      1844      1845      1838      1841      1844      1846
      1838      1841      1844      1847      1839      1838      1841      1842
      1839      1838      1841      1843      1839      1838      1841      1844
      1840      1838      1841      1842      1840      1838      1841      1843
      1840      1838      1841      1844      1841      1844      1847      1848
      1841      1844      1847      1849      1841      1844      1847      1850
      1842      1841      1844      1845      1842      1841      1844      1846
      1842      1841      1844      1847      1843      1841      1844      1845
      1843      1841      1844      1846      1843      1841      1844      1847
      1844      1847      1850      1851      1844      1847      1850      1852
      1844      1847      1850      1853      1845      1844      1847      1848
      1845      1844      1847      1849      1845      1844      1847      1850
      1846      1844      1847      1848      1846      1844      1847      1849
      1846      1844      1847      1850      1847      1850      1853      1854
      1847      1850      1853      1855      1847      1850      1853      1856
      1848      1847      1850      1851      1848      1847      1850      1852
      1848      1847      1850      1853      1849      1847      1850      1851
      1849      1847      1850      1852      1849      1847      1850      1853
      1851      1850      1853      1854      1851      1850      1853      1855
      1851      1850      1853      1856      1852      1850      1853      1854
      1852      1850      1853      1855      1852      1850      1853      1856
      1857      1870      1873      1874      1857      1870      1873      1875
      1857      1870      1873      1880      1858      1857      1862      1863
      1858      1857      1862      1864      1858      1857      1862      1865
      1858      1857      1866      1867      1858      1857      1866      1868
      1858      1857      1866      1869      1858      1857      1870      1871
      1858      1857      1870      1872      1858      1857      1870      1873
      1859      1858      1857      1862      1859      1858      1857      1866
      1859      1858      1857      1870      1860      1858      1857      1862
      1860      1858      1857      1866      1860      1858      1857      1870
      1861      1858      1857      1862      1861      1858      1857      1866
      1861      1858      1857      1870      1862      1857      1866      1867
      1862      1857      1866      1868      1862      1857      1866      1869
      1862      1857      1870      1871      1862      1857      1870      1872
      1862      1857      1870      1873      1863      1862      1857      1866
      1863      1862      1857      1870      1864      1862      1857      1866
      1864      1862      1857      1870      1865      1862      1857      1866
      1865      1862      1857      1870      1866      1857      1870      1871
      1866      1857      1870      1872      1866      1857      1870      1873
      1867      1866      1857      1870      1868      1866      1857      1870
      1869      1866      1857      1870      1870      1873      1880      1876
      1871      1870      1873      1874      1871      1870      1873      1875
      1871      1870      1873      1880      1872      1870      1873      1874
      1872      1870      1873      1875      1872      1870      1873      1880
      1873      1880      1876      1877      1873      1880      1876      1878
      1873      1880      1876      1879      1874      1873      1880      1876
      1875      1873      1880      1876      1876      1879      1881      1882
      1876      1879      1881      1883      1876      1879      1881      1886
      1877      1876      1879      1881      1878      1876      1879      1881
      1879      1881      1886      1884      1879      1881      1886      1887
      1879      1881      1886      1888      1880      1876      1879      1881
      1881      1886      1884      1885      1881      1886      1884      1936
      1881      1886      1888      1889      1881      1886      1888      1890
      1881      1886      1888      1892      1882      1881      1886      1884
      1882      1881      1886      1887      1882      1881      1886      1888
      1883      1881      1886      1884      1883      1881      1886      1887
      1883      1881      1886      1888      1884      1886      1888      1889
      1884      1886      1888      1890      1884      1886      1888      1892
      1884      1936      1938      1939      1884      1936      1938      1940
      1884      1936      1938      1941      1885      1884      1886      1887
      1885      1884      1886      1888      1885      1884      1936      1937
      1885      1884      1936      1938      1886      1884      1936      1937
      1886      1884      1936      1938      1886      1888      1890      1891
      1886      1888      1892      1893      1886      1888      1892      1894
      1887      1886      1884      1936      1887      1886      1888      1889
      1887      1886      1888      1890      1887      1886      1888      1892
      1888      1886      1884      1936      1888      1892      1894      1895
      1888      1892      1894      1896      1889      1888      1890      1891
      1889      1888      1892      1893      1889      1888      1892      1894
      1890      1888      1892      1893      1890      1888      1892      1894
      1891      1890      1888      1892      1892      1894      1896      1897
      1892      1894      1896      1898      1892      1894      1896      1899
      1893      1892      1894      1895      1893      1892      1894      1896
      1894      1896      1899      1900      1894      1896      1899      1901
      1894      1896      1899      1902      1895      1894      1896      1897
      1895      1894      1896      1898      1895      1894      1896      1899
      1896      1899      1902      1903      1896      1899      1902      1904
      1896      1899      1902      1905      1897      1896      1899      1900
      1897      1896      1899      1901      1897      1896      1899      1902
      1898      1896      1899      1900      1898      1896      1899      1901
      1898      1896      1899      1902      1899      1902      1905      1906
      1899      1902      1905      1907      1899      1902      1905      1908
      1900      1899      1902      1903      1900      1899      1902      1904
      1900      1899      1902      1905      1901      1899      1902      1903
      1901      1899      1902      1904      1901      1899      1902      1905
      1902      1905      1908      1909      1902      1905      1908      1910
      1902      1905      1908      1911      1903      1902      1905      1906
      1903      1902      1905      1907      1903      1902      1905      1908
      1904      1902      1905      1906      1904      1902      1905      1907
      1904      1902      1905      1908      1905      1908      1911      1912
      1905      1908      1911      1913      1905      1908      1911      1914
      1906      1905      1908      1909      1906      1905      1908      1910
      1906      1905      1908      1911      1907      1905      1908      1909
      1907      1905      1908      1910      1907      1905      1908      1911
      1908      1911      1914      1915      1908      1911      1914      1916
      1908      1911      1914      1917      1909      1908      1911      1912
      1909      1908      1911      1913      1909      1908      1911      1914
      1910      1908      1911      1912      1910      1908      1911      1913
      1910      1908      1911      1914      1911      1914      1917      1918
      1911      1914      1917      1919      1911      1914      1917      1920
      1912      1911      1914      1915      1912      1911      1914      1916
      1912      1911      1914      1917      1913      1911      1914      1915
      1913      1911      1914      1916      1913      1911      1914      1917
      1914      1917      1920      1921      1914      1917      1920      1922
      1914      1917      1920      1923      1915      1914      1917      1918
      1915      1914      1917      1919      1915      1914      1917      1920
      1916      1914      1917      1918      1916      1914      1917      1919
      1916      1914      1917      1920      1917      1920      1923      1924
      1917      1920      1923      1925      1917      1920      1923      1926
      1918      1917      1920      1921      1918      1917      1920      1922
      1918      1917      1920      1923      1919      1917      1920      1921
      1919      1917      1920      1922      1919      1917      1920      1923
      1920      1923      1926      1927      1920      1923      1926      1928
      1920      1923      1926      1929      1921      1920      1923      1924
      1921      1920      1923      1925      1921      1920      1923      1926
      1922      1920      1923      1924      1922      1920      1923      1925
      1922      1920      1923      1926      1923      1926      1929      1930
      1923      1926      1929      1931      1923      1926      1929      1932
      1924      1923      1926      1927      1924      1923      1926      1928
      1924      1923      1926      1929      1925      1923      1926      1927
      1925      1923      1926      1928      1925      1923      1926      1929
      1926      1929      1932      1933      1926      1929      1932      1934
      1926      1929      1932      1935      1927      1926      1929      1930
      1927      1926      1929      1931      1927      1926      1929      1932
      1928      1926      1929      1930      1928      1926      1929      1931
      1928      1926      1929      1932      1930      1929      1932      1933
      1930      1929      1932      1934      1930      1929      1932      1935
      1931      1929      1932      1933      1931      1929      1932      1934
      1931      1929      1932      1935      1936      1938      1941      1942
      1936      1938      1941      1943      1936      1938      1941      1944
      1937      1936      1938      1939      1937      1936      1938      1940
      1937      1936      1938      1941      1938      1941      1944      1945
      1938      1941      1944      1946      1938      1941      1944      1947
      1939      1938      1941      1942      1939      1938      1941      1943
      1939      1938      1941      1944      1940      1938      1941      1942
      1940      1938      1941      1943      1940      1938      1941      1944
      1941      1944      1947      1948      1941      1944      1947      1949
      1941      1944      1947      1950      1942      1941      1944      1945
      1942      1941      1944      1946      1942      1941      1944      1947
      1943      1941      1944      1945      1943      1941      1944      1946
      1943      1941      1944      1947      1944      1947      1950      1951
      1944      1947      1950      1952      1944      1947      1950      1953
      1945      1944      1947      1948      1945      1944      1947      1949
      1945      1944      1947      1950      1946      1944      1947      1948
      1946      1944      1947      1949      1946      1944      1947      1950
      1947      1950      1953      1954      1947      1950      1953      1955
      1947      1950      1953      1956      1948      1947      1950      1951
      1948      1947      1950      1952      1948      1947      1950      1953
      1949      1947      1950      1951      1949      1947      1950      1952
      1949      1947      1950      1953      1950      1953      1956      1957
      1950      1953      1956      1958      1950      1953      1956      1959
      1951      1950      1953      1954      1951      1950      1953      1955
      1951      1950      1953      1956      1952      1950      1953      1954
      1952      1950      1953      1955      1952      1950      1953      1956
      1953      1956      1959      1960      1953      1956      1959      1961
      1954      1953      1956      1957      1954      1953      1956      1958
      1954      1953      1956      1959      1955      1953      1956      1957
      1955      1953      1956      1958      1955      1953      1956      1959
      1956      1959      1961      1962      1956      1959      1961      1963
      1957      1956      1959      1960      1957      1956      1959      1961
      1958      1956      1959      1960      1958      1956      1959      1961
      1959      1961      1963      1964      1959      1961      1963      1965
      1959      1961      1963      1966      1960      1959      1961      1962
      1960      1959      1961      1963      1961      1963      1966      1967
      1961      1963      1966      1968      1961      1963      1966      1969
      1962      1961      1963      1964      1962      1961      1963      1965
      1962      1961      1963      1966      1963      1966      1969      1970
      1963      1966      1969      1971      1963      1966      1969      1972
      1964      1963      1966      1967      1964      1963      1966      1968
      1964      1963      1966      1969      1965      1963      1966      1967
      1965      1963      1966      1968      1965      1963      1966      1969
      1966      1969      1972      1973      1966      1969      1972      1974
      1966      1969      1972      1975      1967      1966      1969      1970
      1967      1966      1969      1971      1967      1966      1969      1972
      1968      1966      1969      1970      1968      1966      1969      1971
      1968      1966      1969      1972      1969      1972      1975      1976
      1969      1972      1975      1977      1969      1972      1975      1978
      1970      1969      1972      1973      1970      1969      1972      1974
      1970      1969      1972      1975      1971      1969      1972      1973
      1971      1969      1972      1974      1971      1969      1972      1975
      1972      1975      1978      1979      1972      1975      1978      1980
      1972      1975      1978      1981      1973      1972      1975      1976
      1973      1972      1975      1977      1973      1972      1975      1978
      1974      1972      1975      1976      1974      1972      1975      1977
      1974      1972      1975      1978      1975      1978      1981      1982
      1975      1978      1981      1983      1975      1978      1981      1984
      1976      1975      1978      1979      1976      1975      1978      1980
      1976      1975      1978      1981      1977      1975      1978      1979
      1977      1975      1978      1980      1977      1975      1978      1981
      1978      1981      1984      1985      1978      1981      1984      1986
      1978      1981      1984      1987      1979      1978      1981      1982
      1979      1978      1981      1983      1979      1978      1981      1984
      1980      1978      1981      1982      1980      1978      1981      1983
      1980      1978      1981      1984      1982      1981      1984      1985
      1982      1981      1984      1986      1982      1981      1984      1987
      1983      1981      1984      1985      1983      1981      1984      1986
      1983      1981      1984      1987      1988      1992      1994      1995
      1988      1992      1996      1997      1988      1992      1996      1998
      1988      1992      1996      2000      1988      2008      2004      2000
      1988      2008      2004      2005      1988      2008      2004      2006
      1988      2008      2013      2010      1989      1988      1990      1991
      1989      1988      1992      1993      1989      1988      1992      1994
      1989      1988      1992      1996      1989      1988      2008      2004
      1989      1988      2008      2009      1989      1988      2008      2013
      1990      1988      1992      1993      1990      1988      1992      1994
      1990      1988      1992      1996      1990      1988      2008      2004
      1990      1988      2008      2009      1990      1988      2008      2013
      1991      1990      1988      1992      1991      1990      1988      2008
      1992      1988      2008      2004      1992      1988      2008      2009
      1992      1988      2008      2013      1992      1996      1998      1999
      1992      1996      2000      2001      1992      1996      2000      2002
      1992      1996      2000      2004      1993      1992      1988      2008
      1993      1992      1994      1995      1993      1992      1996      1997
      1993      1992      1996      1998      1993      1992      1996      2000
      1994      1992      1988      2008      1994      1992      1996      1997
      1994      1992      1996      1998      1994      1992      1996      2000
      1995      1994      1992      1996      1996      1992      1988      2008
      1996      2000      2002      2003      1996      2000      2004      2005
      1996      2000      2004      2006      1996      2000      2004      2008
      1997      1996      1998      1999      1997      1996      2000      2001
      1997      1996      2000      2002      1997      1996      2000      2004
      1998      1996      2000      2001      1998      1996      2000      2002
      1998      1996      2000      2004      1999      1998      1996      2000
      2000      2004      2006      2007      2000      2004      2008      2009
      2000      2004      2008      2013      2001      2000      2002      2003
      2001      2000      2004      2005      2001      2000      2004      2006
      2001      2000      2004      2008      2002      2000      2004      2005
      2002      2000      2004      2006      2002      2000      2004      2008
      2003      2002      2000      2004      2004      2008      2013      2010
      2005      2004      2006      2007      2005      2004      2008      2009
      2005      2004      2008      2013      2006      2004      2008      2009
      2006      2004      2008      2013      2007      2006      2004      2008
      2008      2013      2010      2011      2008      2013      2010      2012
      2008      2013      2010      2014      2009      2008      2013      2010
      2010      2014      2015      2016      2010      2014      2015      2017
      2010      2014      2015      2018      2011      2010      2014      2015
      2012      2010      2014      2015      2013      2010      2014      2015
      2014      2015      2018      2019      2014      2015      2018      2020
      2014      2015      2018      2026      2015      2018      2020      2021
      2015      2018      2026      2027      2015      2018      2026      2028
      2015      2018      2026      2029      2016      2015      2018      2019
      2016      2015      2018      2020      2016      2015      2018      2026
      2017      2015      2018      2019      2017      2015      2018      2020
      2017      2015      2018      2026      2018      2020      2021      2022
      2018      2020      2021      2023      2018      2026      2029      2030
      2019      2018      2020      2021      2019      2018      2026      2027
      2019      2018      2026      2028      2019      2018      2026      2029
      2020      2018      2026      2027      2020      2018      2026      2028
      2020      2018      2026      2029      2020      2021      2023      2024
      2020      2021      2023      2025      2020      2021      2023      2035
      2021      2020      2018      2026      2021      2023      2035      2036
      2021      2023      2035      2037      2021      2023      2035      2038
      2022      2021      2023      2024      2022      2021      2023      2025
      2022      2021      2023      2035      2023      2035      2038      2039
      2023      2035      2038      2040      2023      2035      2038      2041
      2024      2023      2035      2036      2024      2023      2035      2037
      2024      2023      2035      2038      2025      2023      2035      2036
      2025      2023      2035      2037      2025      2023      2035      2038
      2026      2029      2030      2031      2026      2029      2030      2032
      2027      2026      2029      2030      2028      2026      2029      2030
      2029      2030      2032      2033      2029      2030      2032      2034
      2029      2030      2032      2082      2030      2032      2082      2083
      2030      2032      2082      2084      2030      2032      2082      2085
      2031      2030      2032      2033      2031      2030      2032      2034
      2031      2030      2032      2082      2032      2082      2085      2086
      2032      2082      2085      2087      2032      2082      2085      2088
      2033      2032      2082      2083      2033      2032      2082      2084
      2033      2032      2082      2085      2034      2032      2082      2083
      2034      2032      2082      2084      2034      2032      2082      2085
      2035      2038      2041      2042      2035      2038      2041      2043
      2036      2035      2038      2039      2036      2035      2038      2040
      2036      2035      2038      2041      2037      2035      2038      2039
      2037      2035      2038      2040      2037      2035      2038      2041
      2038      2041      2043      2044      2038      2041      2043      2045
      2039      2038      2041      2042      2039      2038      2041      2043
      2040      2038      2041      2042      2040      2038      2041      2043
      2041      2043      2045      2046      2041      2043      2045      2047
      2041      2043      2045      2048      2042      2041      2043      2044
      2042      2041      2043      2045      2043      2045      2048      2049
      2043      2045      2048      2050      2044      2043      2045      2046
      2044      2043      2045      2047      2044      2043      2045      2048
      2045      2048      2050      2051      2045      2048      2050      2052
      2046      2045      2048      2049      2046      2045      2048      2050
      2047      2045      2048      2049      2047      2045      2048      2050
      2048      2050      2052      2053      2048      2050      2052      2054
      2048      2050      2052      2055      2049      2048      2050      2051
      2049      2048      2050      2052      2050      2052      2055      2056
      2050      2052      2055      2057      2051      2050      2052      2053
      2051      2050      2052      2054      2051      2050      2052      2055
      2052      2055      2057      2058      2052      2055      2057      2059
      2053      2052      2055      2056      2053      2052      2055      2057
      2054      2052      2055      2056      2054      2052      2055      2057
      2055      2057      2059      2060      2055      2057      2059      2061
      2055      2057      2059      2062      2056      2055      2057      2058
      2056      2055      2057      2059      2057      2059      2062      2063
      2057      2059      2062      2064      2058      2057      2059      2060
      2058      2057      2059      2061      2058      2057      2059      2062
      2059      2062      2064      2065      2059      2062      2064      2066
      2060      2059      2062      2063      2060      2059      2062      2064
      2061      2059      2062      2063      2061      2059      2062      2064
      2062      2064      2066      2067      2062      2064      2066      2068
      2062      2064      2066      2069      2063      2062      2064      2065
      2063      2062      2064      2066      2064      2066      2069      2070
      2064      2066      2069      2071      2064      2066      2069      2072
      2065      2064      2066      2067      2065      2064      2066      2068
      2065      2064      2066      2069      2066      2069      2072      2073
      2066      2069      2072      2074      2066      2069      2072      2075
      2067      2066      2069      2070      2067      2066      2069      2071
      2067      2066      2069      2072      2068      2066      2069      2070
      2068      2066      2069      2071      2068      2066      2069      2072
      2069      2072      2075      2076      2069      2072      2075      2077
      2069      2072      2075      2078      2070      2069      2072      2073
      2070      2069      2072      2074      2070      2069      2072      2075
      2071      2069      2072      2073      2071      2069      2072      2074
      2071      2069      2072      2075      2072      2075      2078      2079
      2072      2075      2078      2080      2072      2075      2078      2081
      2073      2072      2075      2076      2073      2072      2075      2077
      2073      2072      2075      2078      2074      2072      2075      2076
      2074      2072      2075      2077      2074      2072      2075      2078
      2076      2075      2078      2079      2076      2075      2078      2080
      2076      2075      2078      2081      2077      2075      2078      2079
      2077      2075      2078      2080      2077      2075      2078      2081
      2082      2085      2088      2089      2082      2085      2088      2090
      2082      2085      2088      2091      2083      2082      2085      2086
      2083      2082      2085      2087      2083      2082      2085      2088
      2084      2082      2085      2086      2084      2082      2085      2087
      2084      2082      2085      2088      2085      2088      2091      2092
      2085      2088      2091      2093      2085      2088      2091      2094
      2086      2085      2088      2089      2086      2085      2088      2090
      2086      2085      2088      2091      2087      2085      2088      2089
      2087      2085      2088      2090      2087      2085      2088      2091
      2088      2091      2094      2095      2088      2091      2094      2096
      2088      2091      2094      2097      2089      2088      2091      2092
      2089      2088      2091      2093      2089      2088      2091      2094
      2090      2088      2091      2092      2090      2088      2091      2093
      2090      2088      2091      2094      2091      2094      2097      2098
      2091      2094      2097      2099      2091      2094      2097      2100
      2092      2091      2094      2095      2092      2091      2094      2096
      2092      2091      2094      2097      2093      2091      2094      2095
      2093      2091      2094      2096      2093      2091      2094      2097
      2094      2097      2100      2101      2094      2097      2100      2102
      2094      2097      2100      2103      2095      2094      2097      2098
      2095      2094      2097      2099      2095      2094      2097      2100
      2096      2094      2097      2098      2096      2094      2097      2099
      2096      2094      2097      2100      2097      2100      2103      2104
      2097      2100      2103      2105      2097      2100      2103      2106
      2098      2097      2100      2101      2098      2097      2100      2102
      2098      2097      2100      2103      2099      2097      2100      2101
      2099      2097      2100      2102      2099      2097      2100      2103
      2100      2103      2106      2107      2100      2103      2106      2108
      2100      2103      2106      2109      2101      2100      2103      2104
      2101      2100      2103      2105      2101      2100      2103      2106
      2102      2100      2103      2104      2102      2100      2103      2105
      2102      2100      2103      2106      2103      2106      2109      2110
      2103      2106      2109      2111      2103      2106      2109      2112
      2104      2103      2106      2107      2104      2103      2106      2108
      2104      2103      2106      2109      2105      2103      2106      2107
      2105      2103      2106      2108      2105      2103      2106      2109
      2106      2109      2112      2113      2106      2109      2112      2114
      2106      2109      2112      2115      2107      2106      2109      2110
      2107      2106      2109      2111      2107      2106      2109      2112
      2108      2106      2109      2110      2108      2106      2109      2111
      2108      2106      2109      2112      2109      2112      2115      2116
      2109      2112      2115      2117      2109      2112      2115      2118
      2110      2109      2112      2113      2110      2109      2112      2114
      2110      2109      2112      2115      2111      2109      2112      2113
      2111      2109      2112      2114      2111      2109      2112      2115
      2112      2115      2118      2119      2112      2115      2118      2120
      2112      2115      2118      2121      2113      2112      2115      2116
      2113      2112      2115      2117      2113      2112      2115      2118
      2114      2112      2115      2116      2114      2112      2115      2117
      2114      2112      2115      2118      2115      2118      2121      2122
      2115      2118      2121      2123      2115      2118      2121      2124
      2116      2115      2118      2119      2116      2115      2118      2120
      2116      2115      2118      2121      2117      2115      2118      2119
      2117      2115      2118      2120      2117      2115      2118      2121
      2118      2121      2124      2125      2118      2121      2124      2126
      2118      2121      2124      2127      2119      2118      2121      2122
      2119      2118      2121      2123      2119      2118      2121      2124
      2120      2118      2121      2122      2120      2118      2121      2123
      2120      2118      2121      2124      2121      2124      2127      2128
      2121      2124      2127      2129      2121      2124      2127      2130
      2122      2121      2124      2125      2122      2121      2124      2126
      2122      2121      2124      2127      2123      2121      2124      2125
      2123      2121      2124      2126      2123      2121      2124      2127
      2125      2124      2127      2128      2125      2124      2127      2129
      2125      2124      2127      2130      2126      2124      2127      2128
      2126      2124      2127      2129      2126      2124      2127      2130
      2131      2135      2138      2139      2131      2135      2138      2140
      2131      2135      2138      2144      2132      2131      2135      2136
      2132      2131      2135      2137      2132      2131      2135      2138
      2133      2131      2135      2136      2133      2131      2135      2137
      2133      2131      2135      2138      2134      2131      2135      2136
      2134      2131      2135      2137      2134      2131      2135      2138
      2135      2138      2144      2141      2136      2135      2138      2139
      2136      2135      2138      2140      2136      2135      2138      2144
      2137      2135      2138      2139      2137      2135      2138      2140
      2137      2135      2138      2144      2138      2144      2141      2142
      2138      2144      2141      2143      2138      2144      2141      2145
      2139      2138      2144      2141      2140      2138      2144      2141
      2141      2145      2146      2147      2141      2145      2146      2148
      2141      2145      2146      2149      2142      2141      2145      2146
      2143      2141      2145      2146      2144      2141      2145      2146
      2145      2146      2149      2150      2145      2146      2149      2151
      2145      2146      2149      2157      2146      2149      2151      2152
      2146      2149      2157      2158      2146      2149      2157      2159
      2146      2149      2157      2160      2147      2146      2149      2150
      2147      2146      2149      2151      2147      2146      2149      2157
      2148      2146      2149      2150      2148      2146      2149      2151
      2148      2146      2149      2157      2149      2151      2152      2153
      2149      2151      2152      2154      2149      2157      2160      2161
      2150      2149      2151      2152      2150      2149      2157      2158
      2150      2149      2157      2159      2150      2149      2157      2160
      2151      2149      2157      2158      2151      2149      2157      2159
      2151      2149      2157      2160      2151      2152      2154      2155
      2151      2152      2154      2156      2151      2152      2154      2166
      2152      2151      2149      2157      2152      2154      2166      2167
      2152      2154      2166      2168      2152      2154      2166      2169
      2153      2152      2154      2155      2153      2152      2154      2156
      2153      2152      2154      2166      2154      2166      2169      2170
      2154      2166      2169      2171      2154      2166      2169      2172
      2155      2154      2166      2167      2155      2154      2166      2168
      2155      2154      2166      2169      2156      2154      2166      2167
      2156      2154      2166      2168      2156      2154      2166      2169
      2157      2160      2161      2162      2157      2160      2161      2163
      2158      2157      2160      2161      2159      2157      2160      2161
      2160      2161      2163      2164      2160      2161      2163      2165
      2160      2161      2163      2213      2161      2163      2213      2214
      2161      2163      2213      2215      2161      2163      2213      2216
      2162      2161      2163      2164      2162      2161      2163      2165
      2162      2161      2163      2213      2163      2213      2216      2217
      2163      2213      2216      2218      2163      2213      2216      2219
      2164      2163      2213      2214      2164      2163      2213      2215
      2164      2163      2213      2216      2165      2163      2213      2214
      2165      2163      2213      2215      2165      2163      2213      2216
      2166      2169      2172      2173      2166      2169      2172      2174
      2167      2166      2169      2170      2167      2166      2169      2171
      2167      2166      2169      2172      2168      2166      2169      2170
      2168      2166      2169      2171      2168      2166      2169      2172
      2169      2172      2174      2175      2169      2172      2174      2176
      2170      2169      2172      2173      2170      2169      2172      2174
      2171      2169      2172      2173      2171      2169      2172      2174
      2172      2174      2176      2177      2172      2174      2176      2178
      2172      2174      2176      2179      2173      2172      2174      2175
      2173      2172      2174      2176      2174      2176      2179      2180
      2174      2176      2179      2181      2175      2174      2176      2177
      2175      2174      2176      2178      2175      2174      2176      2179
      2176      2179      2181      2182      2176      2179      2181      2183
      2177      2176      2179      2180      2177      2176      2179      2181
      2178      2176      2179      2180      2178      2176      2179      2181
      2179      2181      2183      2184      2179      2181      2183      2185
      2179      2181      2183      2186      2180      2179      2181      2182
      2180      2179      2181      2183      2181      2183      2186      2187
      2181      2183      2186      2188      2182      2181      2183      2184
      2182      2181      2183      2185      2182      2181      2183      2186
      2183      2186      2188      2189      2183      2186      2188      2190
      2184      2183      2186      2187      2184      2183      2186      2188
      2185      2183      2186      2187      2185      2183      2186      2188
      2186      2188      2190      2191      2186      2188      2190      2192
      2186      2188      2190      2193      2187      2186      2188      2189
      2187      2186      2188      2190      2188      2190      2193      2194
      2188      2190      2193      2195      2189      2188      2190      2191
      2189      2188      2190      2192      2189      2188      2190      2193
      2190      2193      2195      2196      2190      2193      2195      2197
      2191      2190      2193      2194      2191      2190      2193      2195
      2192      2190      2193      2194      2192      2190      2193      2195
      2193      2195      2197      2198      2193      2195      2197      2199
      2193      2195      2197      2200      2194      2193      2195      2196
      2194      2193      2195      2197      2195      2197      2200      2201
      2195      2197      2200      2202      2195      2197      2200      2203
      2196      2195      2197      2198      2196      2195      2197      2199
      2196      2195      2197      2200      2197      2200      2203      2204
      2197      2200      2203      2205      2197      2200      2203      2206
      2198      2197      2200      2201      2198      2197      2200      2202
      2198      2197      2200      2203      2199      2197      2200      2201
      2199      2197      2200      2202      2199      2197      2200      2203
      2200      2203      2206      2207      2200      2203      2206      2208
      2200      2203      2206      2209      2201      2200      2203      2204
      2201      2200      2203      2205      2201      2200      2203      2206
      2202      2200      2203      2204      2202      2200      2203      2205
      2202      2200      2203      2206      2203      2206      2209      2210
      2203      2206      2209      2211      2203      2206      2209      2212
      2204      2203      2206      2207      2204      2203      2206      2208
      2204      2203      2206      2209      2205      2203      2206      2207
      2205      2203      2206      2208      2205      2203      2206      2209
      2207      2206      2209      2210      2207      2206      2209      2211
      2207      2206      2209      2212      2208      2206      2209      2210
      2208      2206      2209      2211      2208      2206      2209      2212
      2213      2216      2219      2220      2213      2216      2219      2221
      2213      2216      2219      2222      2214      2213      2216      2217
      2214      2213      2216      2218      2214      2213      2216      2219
      2215      2213      2216      2217      2215      2213      2216      2218
      2215      2213      2216      2219      2216      2219      2222      2223
      2216      2219      2222      2224      2216      2219      2222      2225
      2217      2216      2219      2220      2217      2216      2219      2221
      2217      2216      2219      2222      2218      2216      2219      2220
      2218      2216      2219      2221      2218      2216      2219      2222
      2219      2222      2225      2226      2219      2222      2225      2227
      2219      2222      2225      2228      2220      2219      2222      2223
      2220      2219      2222      2224      2220      2219      2222      2225
      2221      2219      2222      2223      2221      2219      2222      2224
      2221      2219      2222      2225      2222      2225      2228      2229
      2222      2225      2228      2230      2222      2225      2228      2231
      2223      2222      2225      2226      2223      2222      2225      2227
      2223      2222      2225      2228      2224      2222      2225      2226
      2224      2222      2225      2227      2224      2222      2225      2228
      2225      2228      2231      2232      2225      2228      2231      2233
      2225      2228      2231      2234      2226      2225      2228      2229
      2226      2225      2228      2230      2226      2225      2228      2231
      2227      2225      2228      2229      2227      2225      2228      2230
      2227      2225      2228      2231      2228      2231      2234      2235
      2228      2231      2234      2236      2228      2231      2234      2237
      2229      2228      2231      2232      2229      2228      2231      2233
      2229      2228      2231      2234      2230      2228      2231      2232
      2230      2228      2231      2233      2230      2228      2231      2234
      2231      2234      2237      2238      2231      2234      2237      2239
      2231      2234      2237      2240      2232      2231      2234      2235
      2232      2231      2234      2236      2232      2231      2234      2237
      2233      2231      2234      2235      2233      2231      2234      2236
      2233      2231      2234      2237      2234      2237      2240      2241
      2234      2237      2240      2242      2234      2237      2240      2243
      2235      2234      2237      2238      2235      2234      2237      2239
      2235      2234      2237      2240      2236      2234      2237      2238
      2236      2234      2237      2239      2236      2234      2237      2240
      2237      2240      2243      2244      2237      2240      2243      2245
      2237      2240      2243      2246      2238      2237      2240      2241
      2238      2237      2240      2242      2238      2237      2240      2243
      2239      2237      2240      2241      2239      2237      2240      2242
      2239      2237      2240      2243      2240      2243      2246      2247
      2240      2243      2246      2248      2240      2243      2246      2249
      2241      2240      2243      2244      2241      2240      2243      2245
      2241      2240      2243      2246      2242      2240      2243      2244
      2242      2240      2243      2245      2242      2240      2243      2246
      2243      2246      2249      2250      2243      2246      2249      2251
      2243      2246      2249      2252      2244      2243      2246      2247
      2244      2243      2246      2248      2244      2243      2246      2249
      2245      2243      2246      2247      2245      2243      2246      2248
      2245      2243      2246      2249      2246      2249      2252      2253
      2246      2249      2252      2254      2246      2249      2252      2255
      2247      2246      2249      2250      2247      2246      2249      2251
      2247      2246      2249      2252      2248      2246      2249      2250
      2248      2246      2249      2251      2248      2246      2249      2252
      2249      2252      2255      2256      2249      2252      2255      2257
      2249      2252      2255      2258      2250      2249      2252      2253
      2250      2249      2252      2254      2250      2249      2252      2255
      2251      2249      2252      2253      2251      2249      2252      2254
      2251      2249      2252      2255      2252      2255      2258      2259
      2252      2255      2258      2260      2252      2255      2258      2261
      2253      2252      2255      2256      2253      2252      2255      2257
      2253      2252      2255      2258      2254      2252      2255      2256
      2254      2252      2255      2257      2254      2252      2255      2258
      2256      2255      2258      2259      2256      2255      2258      2260
      2256      2255      2258      2261      2257      2255      2258      2259
      2257      2255      2258      2260      2257      2255      2258      2261
      2262      2266      2269      2270      2262      2266      2269      2300
      2262      2308      2305      2300      2262      2308      2305      2306
      2262      2308      2305      2307      2263      2262      2264      2265
      2263      2262      2266      2267      2263      2262      2266      2268
      2263      2262      2266      2269      2263      2262      2308      2305
      2263      2262      2308      2309      2263      2262      2308      2310
      2264      2262      2266      2267      2264      2262      2266      2268
      2264      2262      2266      2269      2264      2262      2308      2305
      2264      2262      2308      2309      2264      2262      2308      2310
      2265      2264      2262      2266      2265      2264      2262      2308
      2266      2262      2308      2305      2266      2262      2308      2309
      2266      2262      2308      2310      2266      2269      2270      2271
      2266      2269      2270      2272      2266      2269      2300      2298
      2266      2269      2300      2301      2266      2269      2300      2305
      2267      2266      2262      2308      2267      2266      2269      2270
      2267      2266      2269      2300      2268      2266      2262      2308
      2268      2266      2269      2270      2268      2266      2269      2300
      2269      2266      2262      2308      2269      2270      2272      2273
      2269      2270      2272      2274      2269      2270      2272      2275
      2269      2300      2298      2275      2269      2300      2298      2295
      2269      2300      2298      2299      2269      2300      2301      2302
      2269      2300      2301      2303      2269      2300      2301      2304
      2269      2300      2305      2306      2269      2300      2305      2307
      2269      2300      2305      2308      2270      2269      2300      2298
      2270      2269      2300      2301      2270      2269      2300      2305
      2270      2272      2275      2276      2270      2272      2275      2277
      2270      2272      2275      2298      2271      2270      2269      2300
      2271      2270      2272      2273      2271      2270      2272      2274
      2271      2270      2272      2275      2272      2270      2269      2300
      2272      2275      2277      2278      2272      2275      2277      2279
      2272      2275      2277      2287      2272      2275      2298      2295
      2272      2275      2298      2299      2272      2275      2298      2300
      2273      2272      2275      2276      2273      2272      2275      2277
      2273      2272      2275      2298      2274      2272      2275      2276
      2274      2272      2275      2277      2274      2272      2275      2298
      2275      2277      2279      2280      2275      2277      2279      2281
      2275      2277      2279      2282      2275      2277      2287      2285
      2275      2277      2287      2288      2275      2277      2287      2292
      2275      2298      2295      2292      2275      2298      2295      2296
      2275      2298      2295      2297      2275      2298      2300      2301
      2275      2298      2300      2305      2276      2275      2277      2278
      2276      2275      2277      2279      2276      2275      2277      2287
      2276      2275      2298      2295      2276      2275      2298      2299
      2276      2275      2298      2300      2277      2275      2298      2295
      2277      2275      2298      2299      2277      2275      2298      2300
      2277      2279      2282      2283      2277      2279      2282      2284
      2277      2279      2282      2285      2277      2287      2285      2282
      2277      2287      2285      2286      2277      2287      2285      2311
      2277      2287      2288      2289      2277      2287      2288      2290
      2277      2287      2288      2291      2277      2287      2292      2293
      2277      2287      2292      2294      2277      2287      2292      2295
      2278      2277      2275      2298      2278      2277      2279      2280
      2278      2277      2279      2281      2278      2277      2279      2282
      2278      2277      2287      2285      2278      2277      2287      2288
      2278      2277      2287      2292      2279      2277      2275      2298
      2279      2277      2287      2285      2279      2277      2287      2288
      2279      2277      2287      2292      2279      2282      2285      2286
      2279      2282      2285      2287      2279      2282      2285      2311
      2280      2279      2277      2287      2280      2279      2282      2283
      2280      2279      2282      2284      2280      2279      2282      2285
      2281      2279      2277      2287      2281      2279      2282      2283
      2281      2279      2282      2284      2281      2279      2282      2285
      2282      2279      2277      2287      2282      2285      2287      2288
      2282      2285      2287      2292      2282      2285      2311      2312
      2282      2285      2311      2313      2282      2285      2311      2317
      2283      2282      2285      2286      2283      2282      2285      2287
      2283      2282      2285      2311      2284      2282      2285      2286
      2284      2282      2285      2287      2284      2282      2285      2311
      2285      2287      2288      2289      2285      2287      2288      2290
      2285      2287      2288      2291      2285      2287      2292      2293
      2285      2287      2292      2294      2285      2287      2292      2295
      2285      2311      2313      2314      2285      2311      2313      2315
      2285      2311      2313      2316      2285      2311      2317      2318
      2285      2311      2317      2319      2285      2311      2317      2320
      2286      2285      2287      2288      2286      2285      2287      2292
      2286      2285      2311      2312      2286      2285      2311      2313
      2286      2285      2311      2317      2287      2277      2275      2298
      2287      2285      2311      2312      2287      2285      2311      2313
      2287      2285      2311      2317      2287      2292      2295      2296
      2287      2292      2295      2297      2287      2292      2295      2298
      2288      2287      2285      2311      2288      2287      2292      2293
      2288      2287      2292      2294      2288      2287      2292      2295
      2289      2288      2287      2292      2290      2288      2287      2292
      2291      2288      2287      2292      2292      2287      2285      2311
      2292      2295      2298      2299      2292      2295      2298      2300
      2293      2292      2295      2296      2293      2292      2295      2297
      2293      2292      2295      2298      2294      2292      2295      2296
      2294      2292      2295      2297      2294      2292      2295      2298
      2295      2298      2300      2301      2295      2298      2300      2305
      2296      2295      2298      2299      2296      2295      2298      2300
      2297      2295      2298      2299      2297      2295      2298      2300
      2298      2300      2301      2302      2298      2300      2301      2303
      2298      2300      2301      2304      2298      2300      2305      2306
      2298      2300      2305      2307      2298      2300      2305      2308
      2299      2298      2300      2301      2299      2298      2300      2305
      2300      2305      2308      2309      2300      2305      2308      2310
      2301      2300      2305      2306      2301      2300      2305      2307
      2301      2300      2305      2308      2302      2301      2300      2305
      2303      2301      2300      2305      2304      2301      2300      2305
      2306      2305      2308      2309      2306      2305      2308      2310
      2307      2305      2308      2309      2307      2305      2308      2310
      2311      2317      2320      2321      2311      2317      2320      2322
      2311      2317      2320      2323      2312      2311      2313      2314
      2312      2311      2313      2315      2312      2311      2313      2316
      2312      2311      2317      2318      2312      2311      2317      2319
      2312      2311      2317      2320      2313      2311      2317      2318
      2313      2311      2317      2319      2313      2311      2317      2320
      2314      2313      2311      2317      2315      2313      2311      2317
      2316      2313      2311      2317      2317      2320      2323      2324
      2317      2320      2323      2325      2317      2320      2323      2326
      2318      2317      2320      2321      2318      2317      2320      2322
      2318      2317      2320      2323      2319      2317      2320      2321
      2319      2317      2320      2322      2319      2317      2320      2323
      2320      2323      2326      2327      2320      2323      2326      2328
      2320      2323      2326      2332      2321      2320      2323      2324
      2321      2320      2323      2325      2321      2320      2323      2326
      2322      2320      2323      2324      2322      2320      2323      2325
      2322      2320      2323      2326      2323      2326      2328      2329
      2323      2326      2328      2330      2323      2326      2328      2331
      2323      2326      2332      2333      2323      2326      2332      2334
      2323      2326      2332      2335      2324      2323      2326      2327
      2324      2323      2326      2328      2324      2323      2326      2332
      2325      2323      2326      2327      2325      2323      2326      2328
      2325      2323      2326      2332      2327      2326      2328      2329
      2327      2326      2328      2330      2327      2326      2328      2331
      2327      2326      2332      2333      2327      2326      2332      2334
      2327      2326      2332      2335      2328      2326      2332      2333
      2328      2326      2332      2334      2328      2326      2332      2335
      2329      2328      2326      2332      2330      2328      2326      2332
      2331      2328      2326      2332      2336      2340      2343      2344
      2336      2340      2343      2345      2336      2340      2343      2349
      2337      2336      2340      2341      2337      2336      2340      2342
      2337      2336      2340      2343      2338      2336      2340      2341
      2338      2336      2340      2342      2338      2336      2340      2343
      2339      2336      2340      2341      2339      2336      2340      2342
      2339      2336      2340      2343      2340      2343      2349      2346
      2341      2340      2343      2344      2341      2340      2343      2345
      2341      2340      2343      2349      2342      2340      2343      2344
      2342      2340      2343      2345      2342      2340      2343      2349
      2343      2349      2346      2347      2343      2349      2346      2348
      2343      2349      2346      2350      2344      2343      2349      2346
      2345      2343      2349      2346      2346      2350      2351      2352
      2346      2350      2351      2353      2346      2350      2351      2354
      2347      2346      2350      2351      2348      2346      2350      2351
      2349      2346      2350      2351      2350      2351      2354      2355
      2350      2351      2354      2356      2350      2351      2354      2362
      2351      2354      2356      2357      2351      2354      2362      2363
      2351      2354      2362      2364      2351      2354      2362      2365
      2352      2351      2354      2355      2352      2351      2354      2356
      2352      2351      2354      2362      2353      2351      2354      2355
      2353      2351      2354      2356      2353      2351      2354      2362
      2354      2356      2357      2358      2354      2356      2357      2359
      2354      2362      2365      2366      2355      2354      2356      2357
      2355      2354      2362      2363      2355      2354      2362      2364
      2355      2354      2362      2365      2356      2354      2362      2363
      2356      2354      2362      2364      2356      2354      2362      2365
      2356      2357      2359      2360      2356      2357      2359      2361
      2356      2357      2359      2371      2357      2356      2354      2362
      2357      2359      2371      2372      2357      2359      2371      2373
      2357      2359      2371      2374      2358      2357      2359      2360
      2358      2357      2359      2361      2358      2357      2359      2371
      2359      2371      2374      2375      2359      2371      2374      2376
      2359      2371      2374      2377      2360      2359      2371      2372
      2360      2359      2371      2373      2360      2359      2371      2374
      2361      2359      2371      2372      2361      2359      2371      2373
      2361      2359      2371      2374      2362      2365      2366      2367
      2362      2365      2366      2368      2363      2362      2365      2366
      2364      2362      2365      2366      2365      2366      2368      2369
      2365      2366      2368      2370      2365      2366      2368      2418
      2366      2368      2418      2419      2366      2368      2418      2420
      2366      2368      2418      2421      2367      2366      2368      2369
      2367      2366      2368      2370      2367      2366      2368      2418
      2368      2418      2421      2422      2368      2418      2421      2423
      2368      2418      2421      2424      2369      2368      2418      2419
      2369      2368      2418      2420      2369      2368      2418      2421
      2370      2368      2418      2419      2370      2368      2418      2420
      2370      2368      2418      2421      2371      2374      2377      2378
      2371      2374      2377      2379      2372      2371      2374      2375
      2372      2371      2374      2376      2372      2371      2374      2377
      2373      2371      2374      2375      2373      2371      2374      2376
      2373      2371      2374      2377      2374      2377      2379      2380
      2374      2377      2379      2381      2375      2374      2377      2378
      2375      2374      2377      2379      2376      2374      2377      2378
      2376      2374      2377      2379      2377      2379      2381      2382
      2377      2379      2381      2383      2377      2379      2381      2384
      2378      2377      2379      2380      2378      2377      2379      2381
      2379      2381      2384      2385      2379      2381      2384      2386
      2380      2379      2381      2382      2380      2379      2381      2383
      2380      2379      2381      2384      2381      2384      2386      2387
      2381      2384      2386      2388      2382      2381      2384      2385
      2382      2381      2384      2386      2383      2381      2384      2385
      2383      2381      2384      2386      2384      2386      2388      2389
      2384      2386      2388      2390      2384      2386      2388      2391
      2385      2384      2386      2387      2385      2384      2386      2388
      2386      2388      2391      2392      2386      2388      2391      2393
      2387      2386      2388      2389      2387      2386      2388      2390
      2387      2386      2388      2391      2388      2391      2393      2394
      2388      2391      2393      2395      2389      2388      2391      2392
      2389      2388      2391      2393      2390      2388      2391      2392
      2390      2388      2391      2393      2391      2393      2395      2396
      2391      2393      2395      2397      2391      2393      2395      2398
      2392      2391      2393      2394      2392      2391      2393      2395
      2393      2395      2398      2399      2393      2395      2398      2400
      2394      2393      2395      2396      2394      2393      2395      2397
      2394      2393      2395      2398      2395      2398      2400      2401
      2395      2398      2400      2402      2396      2395      2398      2399
      2396      2395      2398      2400      2397      2395      2398      2399
      2397      2395      2398      2400      2398      2400      2402      2403
      2398      2400      2402      2404      2398      2400      2402      2405
      2399      2398      2400      2401      2399      2398      2400      2402
      2400      2402      2405      2406      2400      2402      2405      2407
      2400      2402      2405      2408      2401      2400      2402      2403
      2401      2400      2402      2404      2401      2400      2402      2405
      2402      2405      2408      2409      2402      2405      2408      2410
      2402      2405      2408      2411      2403      2402      2405      2406
      2403      2402      2405      2407      2403      2402      2405      2408
      2404      2402      2405      2406      2404      2402      2405      2407
      2404      2402      2405      2408      2405      2408      2411      2412
      2405      2408      2411      2413      2405      2408      2411      2414
      2406      2405      2408      2409      2406      2405      2408      2410
      2406      2405      2408      2411      2407      2405      2408      2409
      2407      2405      2408      2410      2407      2405      2408      2411
      2408      2411      2414      2415      2408      2411      2414      2416
      2408      2411      2414      2417      2409      2408      2411      2412
      2409      2408      2411      2413      2409      2408      2411      2414
      2410      2408      2411      2412      2410      2408      2411      2413
      2410      2408      2411      2414      2412      2411      2414      2415
      2412      2411      2414      2416      2412      2411      2414      2417
      2413      2411      2414      2415      2413      2411      2414      2416
      2413      2411      2414      2417      2418      2421      2424      2425
      2418      2421      2424      2426      2418      2421      2424      2427
      2419      2418      2421      2422      2419      2418      2421      2423
      2419      2418      2421      2424      2420      2418      2421      2422
      2420      2418      2421      2423      2420      2418      2421      2424
      2421      2424      2427      2428      2421      2424      2427      2429
      2421      2424      2427      2430      2422      2421      2424      2425
      2422      2421      2424      2426      2422      2421      2424      2427
      2423      2421      2424      2425      2423      2421      2424      2426
      2423      2421      2424      2427      2424      2427      2430      2431
      2424      2427      2430      2432      2424      2427      2430      2433
      2425      2424      2427      2428      2425      2424      2427      2429
      2425      2424      2427      2430      2426      2424      2427      2428
      2426      2424      2427      2429      2426      2424      2427      2430
      2427      2430      2433      2434      2427      2430      2433      2435
      2427      2430      2433      2436      2428      2427      2430      2431
      2428      2427      2430      2432      2428      2427      2430      2433
      2429      2427      2430      2431      2429      2427      2430      2432
      2429      2427      2430      2433      2430      2433      2436      2437
      2430      2433      2436      2438      2430      2433      2436      2439
      2431      2430      2433      2434      2431      2430      2433      2435
      2431      2430      2433      2436      2432      2430      2433      2434
      2432      2430      2433      2435      2432      2430      2433      2436
      2433      2436      2439      2440      2433      2436      2439      2441
      2433      2436      2439      2442      2434      2433      2436      2437
      2434      2433      2436      2438      2434      2433      2436      2439
      2435      2433      2436      2437      2435      2433      2436      2438
      2435      2433      2436      2439      2436      2439      2442      2443
      2436      2439      2442      2444      2436      2439      2442      2445
      2437      2436      2439      2440      2437      2436      2439      2441
      2437      2436      2439      2442      2438      2436      2439      2440
      2438      2436      2439      2441      2438      2436      2439      2442
      2439      2442      2445      2446      2439      2442      2445      2447
      2439      2442      2445      2448      2440      2439      2442      2443
      2440      2439      2442      2444      2440      2439      2442      2445
      2441      2439      2442      2443      2441      2439      2442      2444
      2441      2439      2442      2445      2442      2445      2448      2449
      2442      2445      2448      2450      2442      2445      2448      2451
      2443      2442      2445      2446      2443      2442      2445      2447
      2443      2442      2445      2448      2444      2442      2445      2446
      2444      2442      2445      2447      2444      2442      2445      2448
      2445      2448      2451      2452      2445      2448      2451      2453
      2445      2448      2451      2454      2446      2445      2448      2449
      2446      2445      2448      2450      2446      2445      2448      2451
      2447      2445      2448      2449      2447      2445      2448      2450
      2447      2445      2448      2451      2448      2451      2454      2455
      2448      2451      2454      2456      2448      2451      2454      2457
      2449      2448      2451      2452      2449      2448      2451      2453
      2449      2448      2451      2454      2450      2448      2451      2452
      2450      2448      2451      2453      2450      2448      2451      2454
      2451      2454      2457      2458      2451      2454      2457      2459
      2451      2454      2457      2460      2452      2451      2454      2455
      2452      2451      2454      2456      2452      2451      2454      2457
      2453      2451      2454      2455      2453      2451      2454      2456
      2453      2451      2454      2457      2454      2457      2460      2461
      2454      2457      2460      2462      2454      2457      2460      2463
      2455      2454      2457      2458      2455      2454      2457      2459
      2455      2454      2457      2460      2456      2454      2457      2458
      2456      2454      2457      2459      2456      2454      2457      2460
      2457      2460      2463      2464      2457      2460      2463      2465
      2457      2460      2463      2466      2458      2457      2460      2461
      2458      2457      2460      2462      2458      2457      2460      2463
      2459      2457      2460      2461      2459      2457      2460      2462
      2459      2457      2460      2463      2461      2460      2463      2464
      2461      2460      2463      2465      2461      2460      2463      2466
      2462      2460      2463      2464      2462      2460      2463      2465
      2462      2460      2463      2466      2467      2480      2483      2484
      2467      2480      2483      2485      2467      2480      2483      2489
      2468      2467      2472      2473      2468      2467      2472      2474
      2468      2467      2472      2475      2468      2467      2476      2477
      2468      2467      2476      2478      2468      2467      2476      2479
      2468      2467      2480      2481      2468      2467      2480      2482
      2468      2467      2480      2483      2469      2468      2467      2472
      2469      2468      2467      2476      2469      2468      2467      2480
      2470      2468      2467      2472      2470      2468      2467      2476
      2470      2468      2467      2480      2471      2468      2467      2472
      2471      2468      2467      2476      2471      2468      2467      2480
      2472      2467      2476      2477      2472      2467      2476      2478
      2472      2467      2476      2479      2472      2467      2480      2481
      2472      2467      2480      2482      2472      2467      2480      2483
      2473      2472      2467      2476      2473      2472      2467      2480
      2474      2472      2467      2476      2474      2472      2467      2480
      2475      2472      2467      2476      2475      2472      2467      2480
      2476      2467      2480      2481      2476      2467      2480      2482
      2476      2467      2480      2483      2477      2476      2467      2480
      2478      2476      2467      2480      2479      2476      2467      2480
      2480      2483      2489      2486      2481      2480      2483      2484
      2481      2480      2483      2485      2481      2480      2483      2489
      2482      2480      2483      2484      2482      2480      2483      2485
      2482      2480      2483      2489      2483      2489      2486      2487
      2483      2489      2486      2488      2483      2489      2486      2490
      2484      2483      2489      2486      2485      2483      2489      2486
      2486      2490      2491      2492      2486      2490      2491      2493
      2486      2490      2491      2494      2487      2486      2490      2491
      2488      2486      2490      2491      2489      2486      2490      2491
      2490      2491      2494      2495      2490      2491      2494      2496
      2490      2491      2494      2502      2491      2494      2496      2497
      2491      2494      2502      2503      2491      2494      2502      2504
      2491      2494      2502      2505      2492      2491      2494      2495
      2492      2491      2494      2496      2492      2491      2494      2502
      2493      2491      2494      2495      2493      2491      2494      2496
      2493      2491      2494      2502      2494      2496      2497      2498
      2494      2496      2497      2499      2494      2502      2505      2506
      2495      2494      2496      2497      2495      2494      2502      2503
      2495      2494      2502      2504      2495      2494      2502      2505
      2496      2494      2502      2503      2496      2494      2502      2504
      2496      2494      2502      2505      2496      2497      2499      2500
      2496      2497      2499      2501      2496      2497      2499      2511
      2497      2496      2494      2502      2497      2499      2511      2512
      2497      2499      2511      2513      2497      2499      2511      2514
      2498      2497      2499      2500      2498      2497      2499      2501
      2498      2497      2499      2511      2499      2511      2514      2515
      2499      2511      2514      2516      2499      2511      2514      2517
      2500      2499      2511      2512      2500      2499      2511      2513
      2500      2499      2511      2514      2501      2499      2511      2512
      2501      2499      2511      2513      2501      2499      2511      2514
      2502      2505      2506      2507      2502      2505      2506      2508
      2503      2502      2505      2506      2504      2502      2505      2506
      2505      2506      2508      2509      2505      2506      2508      2510
      2505      2506      2508      2556      2506      2508      2556      2557
      2506      2508      2556      2558      2506      2508      2556      2559
      2507      2506      2508      2509      2507      2506      2508      2510
      2507      2506      2508      2556      2508      2556      2559      2560
      2508      2556      2559      2561      2508      2556      2559      2562
      2509      2508      2556      2557      2509      2508      2556      2558
      2509      2508      2556      2559      2510      2508      2556      2557
      2510      2508      2556      2558      2510      2508      2556      2559
      2511      2514      2517      2518      2511      2514      2517      2519
      2511      2514      2517      2520      2512      2511      2514      2515
      2512      2511      2514      2516      2512      2511      2514      2517
      2513      2511      2514      2515      2513      2511      2514      2516
      2513      2511      2514      2517      2514      2517      2520      2521
      2514      2517      2520      2522      2514      2517      2520      2523
      2515      2514      2517      2518      2515      2514      2517      2519
      2515      2514      2517      2520      2516      2514      2517      2518
      2516      2514      2517      2519      2516      2514      2517      2520
      2517      2520      2523      2524      2517      2520      2523      2525
      2517      2520      2523      2526      2518      2517      2520      2521
      2518      2517      2520      2522      2518      2517      2520      2523
      2519      2517      2520      2521      2519      2517      2520      2522
      2519      2517      2520      2523      2520      2523      2526      2527
      2520      2523      2526      2528      2520      2523      2526      2529
      2521      2520      2523      2524      2521      2520      2523      2525
      2521      2520      2523      2526      2522      2520      2523      2524
      2522      2520      2523      2525      2522      2520      2523      2526
      2523      2526      2529      2530      2523      2526      2529      2531
      2524      2523      2526      2527      2524      2523      2526      2528
      2524      2523      2526      2529      2525      2523      2526      2527
      2525      2523      2526      2528      2525      2523      2526      2529
      2526      2529      2531      2532      2526      2529      2531      2533
      2527      2526      2529      2530      2527      2526      2529      2531
      2528      2526      2529      2530      2528      2526      2529      2531
      2529      2531      2533      2534      2529      2531      2533      2535
      2529      2531      2533      2536      2530      2529      2531      2532
      2530      2529      2531      2533      2531      2533      2536      2537
      2531      2533      2536      2538      2532      2531      2533      2534
      2532      2531      2533      2535      2532      2531      2533      2536
      2533      2536      2538      2539      2533      2536      2538      2540
      2534      2533      2536      2537      2534      2533      2536      2538
      2535      2533      2536      2537      2535      2533      2536      2538
      2536      2538      2540      2541      2536      2538      2540      2542
      2536      2538      2540      2543      2537      2536      2538      2539
      2537      2536      2538      2540      2538      2540      2543      2544
      2538      2540      2543      2545      2538      2540      2543      2546
      2539      2538      2540      2541      2539      2538      2540      2542
      2539      2538      2540      2543      2540      2543      2546      2547
      2540      2543      2546      2548      2540      2543      2546      2549
      2541      2540      2543      2544      2541      2540      2543      2545
      2541      2540      2543      2546      2542      2540      2543      2544
      2542      2540      2543      2545      2542      2540      2543      2546
      2543      2546      2549      2550      2543      2546      2549      2551
      2543      2546      2549      2552      2544      2543      2546      2547
      2544      2543      2546      2548      2544      2543      2546      2549
      2545      2543      2546      2547      2545      2543      2546      2548
      2545      2543      2546      2549      2546      2549      2552      2553
      2546      2549      2552      2554      2546      2549      2552      2555
      2547      2546      2549      2550      2547      2546      2549      2551
      2547      2546      2549      2552      2548      2546      2549      2550
      2548      2546      2549      2551      2548      2546      2549      2552
      2550      2549      2552      2553      2550      2549      2552      2554
      2550      2549      2552      2555      2551      2549      2552      2553
      2551      2549      2552      2554      2551      2549      2552      2555
      2556      2559      2562      2563      2556      2559      2562      2564
      2556      2559      2562      2565      2557      2556      2559      2560
      2557      2556      2559      2561      2557      2556      2559      2562
      2558      2556      2559      2560      2558      2556      2559      2561
      2558      2556      2559      2562      2559      2562      2565      2566
      2559      2562      2565      2567      2559      2562      2565      2568
      2560      2559      2562      2563      2560      2559      2562      2564
      2560      2559      2562      2565      2561      2559      2562      2563
      2561      2559      2562      2564      2561      2559      2562      2565
      2562      2565      2568      2569      2562      2565      2568      2570
      2562      2565      2568      2571      2563      2562      2565      2566
      2563      2562      2565      2567      2563      2562      2565      2568
      2564      2562      2565      2566      2564      2562      2565      2567
      2564      2562      2565      2568      2565      2568      2571      2572
      2565      2568      2571      2573      2565      2568      2571      2574
      2566      2565      2568      2569      2566      2565      2568      2570
      2566      2565      2568      2571      2567      2565      2568      2569
      2567      2565      2568      2570      2567      2565      2568      2571
      2568      2571      2574      2575      2568      2571      2574      2576
      2568      2571      2574      2577      2569      2568      2571      2572
      2569      2568      2571      2573      2569      2568      2571      2574
      2570      2568      2571      2572      2570      2568      2571      2573
      2570      2568      2571      2574      2571      2574      2577      2578
      2571      2574      2577      2579      2571      2574      2577      2580
      2572      2571      2574      2575      2572      2571      2574      2576
      2572      2571      2574      2577      2573      2571      2574      2575
      2573      2571      2574      2576      2573      2571      2574      2577
      2574      2577      2580      2581      2574      2577      2580      2582
      2574      2577      2580      2583      2575      2574      2577      2578
      2575      2574      2577      2579      2575      2574      2577      2580
      2576      2574      2577      2578      2576      2574      2577      2579
      2576      2574      2577      2580      2577      2580      2583      2584
      2577      2580      2583      2585      2577      2580      2583      2586
      2578      2577      2580      2581      2578      2577      2580      2582
      2578      2577      2580      2583      2579      2577      2580      2581
      2579      2577      2580      2582      2579      2577      2580      2583
      2580      2583      2586      2587      2580      2583      2586      2588
      2580      2583      2586      2589      2581      2580      2583      2584
      2581      2580      2583      2585      2581      2580      2583      2586
      2582      2580      2583      2584      2582      2580      2583      2585
      2582      2580      2583      2586      2583      2586      2589      2590
      2583      2586      2589      2591      2583      2586      2589      2592
      2584      2583      2586      2587      2584      2583      2586      2588
      2584      2583      2586      2589      2585      2583      2586      2587
      2585      2583      2586      2588      2585      2583      2586      2589
      2586      2589      2592      2593      2586      2589      2592      2594
      2586      2589      2592      2595      2587      2586      2589      2590
      2587      2586      2589      2591      2587      2586      2589      2592
      2588      2586      2589      2590      2588      2586      2589      2591
      2588      2586      2589      2592      2589      2592      2595      2596
      2589      2592      2595      2597      2589      2592      2595      2598
      2590      2589      2592      2593      2590      2589      2592      2594
      2590      2589      2592      2595      2591      2589      2592      2593
      2591      2589      2592      2594      2591      2589      2592      2595
      2592      2595      2598      2599      2592      2595      2598      2600
      2592      2595      2598      2601      2593      2592      2595      2596
      2593      2592      2595      2597      2593      2592      2595      2598
      2594      2592      2595      2596      2594      2592      2595      2597
      2594      2592      2595      2598      2595      2598      2601      2602
      2595      2598      2601      2603      2595      2598      2601      2604
      2596      2595      2598      2599      2596      2595      2598      2600
      2596      2595      2598      2601      2597      2595      2598      2599
      2597      2595      2598      2600      2597      2595      2598      2601
      2599      2598      2601      2602      2599      2598      2601      2603
      2599      2598      2601      2604      2600      2598      2601      2602
      2600      2598      2601      2603      2600      2598      2601      2604
      2605      2618      2621      2622      2605      2618      2621      2623
      2605      2618      2621      2628      2606      2605      2610      2611
      2606      2605      2610      2612      2606      2605      2610      2613
      2606      2605      2614      2615      2606      2605      2614      2616
      2606      2605      2614      2617      2606      2605      2618      2619
      2606      2605      2618      2620      2606      2605      2618      2621
      2607      2606      2605      2610      2607      2606      2605      2614
      2607      2606      2605      2618      2608      2606      2605      2610
      2608      2606      2605      2614      2608      2606      2605      2618
      2609      2606      2605      2610      2609      2606      2605      2614
      2609      2606      2605      2618      2610      2605      2614      2615
      2610      2605      2614      2616      2610      2605      2614      2617
      2610      2605      2618      2619      2610      2605      2618      2620
      2610      2605      2618      2621      2611      2610      2605      2614
      2611      2610      2605      2618      2612      2610      2605      2614
      2612      2610      2605      2618      2613      2610      2605      2614
      2613      2610      2605      2618      2614      2605      2618      2619
      2614      2605      2618      2620      2614      2605      2618      2621
      2615      2614      2605      2618      2616      2614      2605      2618
      2617      2614      2605      2618      2618      2621      2628      2624
      2619      2618      2621      2622      2619      2618      2621      2623
      2619      2618      2621      2628      2620      2618      2621      2622
      2620      2618      2621      2623      2620      2618      2621      2628
      2621      2628      2624      2625      2621      2628      2624      2626
      2621      2628      2624      2627      2622      2621      2628      2624
      2623      2621      2628      2624      2624      2627      2629      2630
      2624      2627      2629      2631      2624      2627      2629      2634
      2625      2624      2627      2629      2626      2624      2627      2629
      2627      2629      2634      2632      2627      2629      2634      2635
      2627      2629      2634      2636      2628      2624      2627      2629
      2629      2634      2632      2633      2629      2634      2632      2684
      2629      2634      2636      2637      2629      2634      2636      2638
      2629      2634      2636      2640      2630      2629      2634      2632
      2630      2629      2634      2635      2630      2629      2634      2636
      2631      2629      2634      2632      2631      2629      2634      2635
      2631      2629      2634      2636      2632      2634      2636      2637
      2632      2634      2636      2638      2632      2634      2636      2640
      2632      2684      2686      2687      2632      2684      2686      2688
      2632      2684      2686      2689      2633      2632      2634      2635
      2633      2632      2634      2636      2633      2632      2684      2685
      2633      2632      2684      2686      2634      2632      2684      2685
      2634      2632      2684      2686      2634      2636      2638      2639
      2634      2636      2640      2641      2634      2636      2640      2642
      2635      2634      2632      2684      2635      2634      2636      2637
      2635      2634      2636      2638      2635      2634      2636      2640
      2636      2634      2632      2684      2636      2640      2642      2643
      2636      2640      2642      2644      2637      2636      2638      2639
      2637      2636      2640      2641      2637      2636      2640      2642
      2638      2636      2640      2641      2638      2636      2640      2642
      2639      2638      2636      2640      2640      2642      2644      2645
      2640      2642      2644      2646      2640      2642      2644      2647
      2641      2640      2642      2643      2641      2640      2642      2644
      2642      2644      2647      2648      2642      2644      2647      2649
      2642      2644      2647      2650      2643      2642      2644      2645
      2643      2642      2644      2646      2643      2642      2644      2647
      2644      2647      2650      2651      2644      2647      2650      2652
      2644      2647      2650      2653      2645      2644      2647      2648
      2645      2644      2647      2649      2645      2644      2647      2650
      2646      2644      2647      2648      2646      2644      2647      2649
      2646      2644      2647      2650      2647      2650      2653      2654
      2647      2650      2653      2655      2647      2650      2653      2656
      2648      2647      2650      2651      2648      2647      2650      2652
      2648      2647      2650      2653      2649      2647      2650      2651
      2649      2647      2650      2652      2649      2647      2650      2653
      2650      2653      2656      2657      2650      2653      2656      2658
      2650      2653      2656      2659      2651      2650      2653      2654
      2651      2650      2653      2655      2651      2650      2653      2656
      2652      2650      2653      2654      2652      2650      2653      2655
      2652      2650      2653      2656      2653      2656      2659      2660
      2653      2656      2659      2661      2653      2656      2659      2662
      2654      2653      2656      2657      2654      2653      2656      2658
      2654      2653      2656      2659      2655      2653      2656      2657
      2655      2653      2656      2658      2655      2653      2656      2659
      2656      2659      2662      2663      2656      2659      2662      2664
      2656      2659      2662      2665      2657      2656      2659      2660
      2657      2656      2659      2661      2657      2656      2659      2662
      2658      2656      2659      2660      2658      2656      2659      2661
      2658      2656      2659      2662      2659      2662      2665      2666
      2659      2662      2665      2667      2659      2662      2665      2668
      2660      2659      2662      2663      2660      2659      2662      2664
      2660      2659      2662      2665      2661      2659      2662      2663
      2661      2659      2662      2664      2661      2659      2662      2665
      2662      2665      2668      2669      2662      2665      2668      2670
      2662      2665      2668      2671      2663      2662      2665      2666
      2663      2662      2665      2667      2663      2662      2665      2668
      2664      2662      2665      2666      2664      2662      2665      2667
      2664      2662      2665      2668      2665      2668      2671      2672
      2665      2668      2671      2673      2665      2668      2671      2674
      2666      2665      2668      2669      2666      2665      2668      2670
      2666      2665      2668      2671      2667      2665      2668      2669
      2667      2665      2668      2670      2667      2665      2668      2671
      2668      2671      2674      2675      2668      2671      2674      2676
      2668      2671      2674      2677      2669      2668      2671      2672
      2669      2668      2671      2673      2669      2668      2671      2674
      2670      2668      2671      2672      2670      2668      2671      2673
      2670      2668      2671      2674      2671      2674      2677      2678
      2671      2674      2677      2679      2671      2674      2677      2680
      2672      2671      2674      2675      2672      2671      2674      2676
      2672      2671      2674      2677      2673      2671      2674      2675
      2673      2671      2674      2676      2673      2671      2674      2677
      2674      2677      2680      2681      2674      2677      2680      2682
      2674      2677      2680      2683      2675      2674      2677      2678
      2675      2674      2677      2679      2675      2674      2677      2680
      2676      2674      2677      2678      2676      2674      2677      2679
      2676      2674      2677      2680      2678      2677      2680      2681
      2678      2677      2680      2682      2678      2677      2680      2683
      2679      2677      2680      2681      2679      2677      2680      2682
      2679      2677      2680      2683      2684      2686      2689      2690
      2684      2686      2689      2691      2684      2686      2689      2692
      2685      2684      2686      2687      2685      2684      2686      2688
      2685      2684      2686      2689      2686      2689      2692      2693
      2686      2689      2692      2694      2686      2689      2692      2695
      2687      2686      2689      2690      2687      2686      2689      2691
      2687      2686      2689      2692      2688      2686      2689      2690
      2688      2686      2689      2691      2688      2686      2689      2692
      2689      2692      2695      2696      2689      2692      2695      2697
      2689      2692      2695      2698      2690      2689      2692      2693
      2690      2689      2692      2694      2690      2689      2692      2695
      2691      2689      2692      2693      2691      2689      2692      2694
      2691      2689      2692      2695      2692      2695      2698      2699
      2692      2695      2698      2700      2692      2695      2698      2701
      2693      2692      2695      2696      2693      2692      2695      2697
      2693      2692      2695      2698      2694      2692      2695      2696
      2694      2692      2695      2697      2694      2692      2695      2698
      2695      2698      2701      2702      2695      2698      2701      2703
      2695      2698      2701      2704      2696      2695      2698      2699
      2696      2695      2698      2700      2696      2695      2698      2701
      2697      2695      2698      2699      2697      2695      2698      2700
      2697      2695      2698      2701      2698      2701      2704      2705
      2698      2701      2704      2706      2698      2701      2704      2707
      2699      2698      2701      2702      2699      2698      2701      2703
      2699      2698      2701      2704      2700      2698      2701      2702
      2700      2698      2701      2703      2700      2698      2701      2704
      2701      2704      2707      2708      2701      2704      2707      2709
      2702      2701      2704      2705      2702      2701      2704      2706
      2702      2701      2704      2707      2703      2701      2704      2705
      2703      2701      2704      2706      2703      2701      2704      2707
      2704      2707      2709      2710      2704      2707      2709      2711
      2705      2704      2707      2708      2705      2704      2707      2709
      2706      2704      2707      2708      2706      2704      2707      2709
      2707      2709      2711      2712      2707      2709      2711      2713
      2707      2709      2711      2714      2708      2707      2709      2710
      2708      2707      2709      2711      2709      2711      2714      2715
      2709      2711      2714      2716      2709      2711      2714      2717
      2710      2709      2711      2712      2710      2709      2711      2713
      2710      2709      2711      2714      2711      2714      2717      2718
      2711      2714      2717      2719      2711      2714      2717      2720
      2712      2711      2714      2715      2712      2711      2714      2716
      2712      2711      2714      2717      2713      2711      2714      2715
      2713      2711      2714      2716      2713      2711      2714      2717
      2714      2717      2720      2721      2714      2717      2720      2722
      2714      2717      2720      2723      2715      2714      2717      2718
      2715      2714      2717      2719      2715      2714      2717      2720
      2716      2714      2717      2718      2716      2714      2717      2719
      2716      2714      2717      2720      2717      2720      2723      2724
      2717      2720      2723      2725      2717      2720      2723      2726
      2718      2717      2720      2721      2718      2717      2720      2722
      2718      2717      2720      2723      2719      2717      2720      2721
      2719      2717      2720      2722      2719      2717      2720      2723
      2720      2723      2726      2727      2720      2723      2726      2728
      2720      2723      2726      2729      2721      2720      2723      2724
      2721      2720      2723      2725      2721      2720      2723      2726
      2722      2720      2723      2724      2722      2720      2723      2725
      2722      2720      2723      2726      2723      2726      2729      2730
      2723      2726      2729      2731      2723      2726      2729      2732
      2724      2723      2726      2727      2724      2723      2726      2728
      2724      2723      2726      2729      2725      2723      2726      2727
      2725      2723      2726      2728      2725      2723      2726      2729
      2726      2729      2732      2733      2726      2729      2732      2734
      2726      2729      2732      2735      2727      2726      2729      2730
      2727      2726      2729      2731      2727      2726      2729      2732
      2728      2726      2729      2730      2728      2726      2729      2731
      2728      2726      2729      2732      2730      2729      2732      2733
      2730      2729      2732      2734      2730      2729      2732      2735
      2731      2729      2732      2733      2731      2729      2732      2734
      2731      2729      2732      2735      2736      2740      2743      2744
      2736      2740      2743      2774      2736      2782      2779      2774
      2736      2782      2779      2780      2736      2782      2779      2781
      2737      2736      2738      2739      2737      2736      2740      2741
      2737      2736      2740      2742      2737      2736      2740      2743
      2737      2736      2782      2779      2737      2736      2782      2783
      2737      2736      2782      2784      2738      2736      2740      2741
      2738      2736      2740      2742      2738      2736      2740      2743
      2738      2736      2782      2779      2738      2736      2782      2783
      2738      2736      2782      2784      2739      2738      2736      2740
      2739      2738      2736      2782      2740      2736      2782      2779
      2740      2736      2782      2783      2740      2736      2782      2784
      2740      2743      2744      2745      2740      2743      2744      2746
      2740      2743      2774      2772      2740      2743      2774      2775
      2740      2743      2774      2779      2741      2740      2736      2782
      2741      2740      2743      2744      2741      2740      2743      2774
      2742      2740      2736      2782      2742      2740      2743      2744
      2742      2740      2743      2774      2743      2740      2736      2782
      2743      2744      2746      2747      2743      2744      2746      2748
      2743      2744      2746      2749      2743      2774      2772      2749
      2743      2774      2772      2769      2743      2774      2772      2773
      2743      2774      2775      2776      2743      2774      2775      2777
      2743      2774      2775      2778      2743      2774      2779      2780
      2743      2774      2779      2781      2743      2774      2779      2782
      2744      2743      2774      2772      2744      2743      2774      2775
      2744      2743      2774      2779      2744      2746      2749      2750
      2744      2746      2749      2751      2744      2746      2749      2772
      2745      2744      2743      2774      2745      2744      2746      2747
      2745      2744      2746      2748      2745      2744      2746      2749
      2746      2744      2743      2774      2746      2749      2751      2752
      2746      2749      2751      2753      2746      2749      2751      2761
      2746      2749      2772      2769      2746      2749      2772      2773
      2746      2749      2772      2774      2747      2746      2749      2750
      2747      2746      2749      2751      2747      2746      2749      2772
      2748      2746      2749      2750      2748      2746      2749      2751
      2748      2746      2749      2772      2749      2751      2753      2754
      2749      2751      2753      2755      2749      2751      2753      2756
      2749      2751      2761      2759      2749      2751      2761      2762
      2749      2751      2761      2766      2749      2772      2769      2766
      2749      2772      2769      2770      2749      2772      2769      2771
      2749      2772      2774      2775      2749      2772      2774      2779
      2750      2749      2751      2752      2750      2749      2751      2753
      2750      2749      2751      2761      2750      2749      2772      2769
      2750      2749      2772      2773      2750      2749      2772      2774
      2751      2749      2772      2769      2751      2749      2772      2773
      2751      2749      2772      2774      2751      2753      2756      2757
      2751      2753      2756      2758      2751      2753      2756      2759
      2751      2761      2759      2756      2751      2761      2759      2760
      2751      2761      2759      2785      2751      2761      2762      2763
      2751      2761      2762      2764      2751      2761      2762      2765
      2751      2761      2766      2767      2751      2761      2766      2768
      2751      2761      2766      2769      2752      2751      2749      2772
      2752      2751      2753      2754      2752      2751      2753      2755
      2752      2751      2753      2756      2752      2751      2761      2759
      2752      2751      2761      2762      2752      2751      2761      2766
      2753      2751      2749      2772      2753      2751      2761      2759
      2753      2751      2761      2762      2753      2751      2761      2766
      2753      2756      2759      2760      2753      2756      2759      2761
      2753      2756      2759      2785      2754      2753      2751      2761
      2754      2753      2756      2757      2754      2753      2756      2758
      2754      2753      2756      2759      2755      2753      2751      2761
      2755      2753      2756      2757      2755      2753      2756      2758
      2755      2753      2756      2759      2756      2753      2751      2761
      2756      2759      2761      2762      2756      2759      2761      2766
      2756      2759      2785      2786      2756      2759      2785      2787
      2756      2759      2785      2791      2757      2756      2759      2760
      2757      2756      2759      2761      2757      2756      2759      2785
      2758      2756      2759      2760      2758      2756      2759      2761
      2758      2756      2759      2785      2759      2761      2762      2763
      2759      2761      2762      2764      2759      2761      2762      2765
      2759      2761      2766      2767      2759      2761      2766      2768
      2759      2761      2766      2769      2759      2785      2787      2788
      2759      2785      2787      2789      2759      2785      2787      2790
      2759      2785      2791      2792      2759      2785      2791      2793
      2759      2785      2791      2794      2760      2759      2761      2762
      2760      2759      2761      2766      2760      2759      2785      2786
      2760      2759      2785      2787      2760      2759      2785      2791
      2761      2751      2749      2772      2761      2759      2785      2786
      2761      2759      2785      2787      2761      2759      2785      2791
      2761      2766      2769      2770      2761      2766      2769      2771
      2761      2766      2769      2772      2762      2761      2759      2785
      2762      2761      2766      2767      2762      2761      2766      2768
      2762      2761      2766      2769      2763      2762      2761      2766
      2764      2762      2761      2766      2765      2762      2761      2766
      2766      2761      2759      2785      2766      2769      2772      2773
      2766      2769      2772      2774      2767      2766      2769      2770
      2767      2766      2769      2771      2767      2766      2769      2772
      2768      2766      2769      2770      2768      2766      2769      2771
      2768      2766      2769      2772      2769      2772      2774      2775
      2769      2772      2774      2779      2770      2769      2772      2773
      2770      2769      2772      2774      2771      2769      2772      2773
      2771      2769      2772      2774      2772      2774      2775      2776
      2772      2774      2775      2777      2772      2774      2775      2778
      2772      2774      2779      2780      2772      2774      2779      2781
      2772      2774      2779      2782      2773      2772      2774      2775
      2773      2772      2774      2779      2774      2779      2782      2783
      2774      2779      2782      2784      2775      2774      2779      2780
      2775      2774      2779      2781      2775      2774      2779      2782
      2776      2775      2774      2779      2777      2775      2774      2779
      2778      2775      2774      2779      2780      2779      2782      2783
      2780      2779      2782      2784      2781      2779      2782      2783
      2781      2779      2782      2784      2785      2791      2794      2795
      2785      2791      2794      2796      2785      2791      2794      2797
      2786      2785      2787      2788      2786      2785      2787      2789
      2786      2785      2787      2790      2786      2785      2791      2792
      2786      2785      2791      2793      2786      2785      2791      2794
      2787      2785      2791      2792      2787      2785      2791      2793
      2787      2785      2791      2794      2788      2787      2785      2791
      2789      2787      2785      2791      2790      2787      2785      2791
      2791      2794      2797      2798      2791      2794      2797      2799
      2791      2794      2797      2800      2792      2791      2794      2795
      2792      2791      2794      2796      2792      2791      2794      2797
      2793      2791      2794      2795      2793      2791      2794      2796
      2793      2791      2794      2797      2794      2797      2800      2801
      2794      2797      2800      2802      2794      2797      2800      2806
      2795      2794      2797      2798      2795      2794      2797      2799
      2795      2794      2797      2800      2796      2794      2797      2798
      2796      2794      2797      2799      2796      2794      2797      2800
      2797      2800      2802      2803      2797      2800      2802      2804
      2797      2800      2802      2805      2797      2800      2806      2807
      2797      2800      2806      2808      2797      2800      2806      2809
      2798      2797      2800      2801      2798      2797      2800      2802
      2798      2797      2800      2806      2799      2797      2800      2801
      2799      2797      2800      2802      2799      2797      2800      2806
      2801      2800      2802      2803      2801      2800      2802      2804
      2801      2800      2802      2805      2801      2800      2806      2807
      2801      2800      2806      2808      2801      2800      2806      2809
      2802      2800      2806      2807      2802      2800      2806      2808
      2802      2800      2806      2809      2803      2802      2800      2806
      2804      2802      2800      2806      2805      2802      2800      2806
      2810      2814      2817      2818      2810      2814      2817      2819
      2810      2814      2817      2823      2811      2810      2814      2815
      2811      2810      2814      2816      2811      2810      2814      2817
      2812      2810      2814      2815      2812      2810      2814      2816
      2812      2810      2814      2817      2813      2810      2814      2815
      2813      2810      2814      2816      2813      2810      2814      2817
      2814      2817      2823      2820      2815      2814      2817      2818
      2815      2814      2817      2819      2815      2814      2817      2823
      2816      2814      2817      2818      2816      2814      2817      2819
      2816      2814      2817      2823      2817      2823      2820      2821
      2817      2823      2820      2822      2817      2823      2820      2824
      2818      2817      2823      2820      2819      2817      2823      2820
      2820      2824      2825      2826      2820      2824      2825      2827
      2820      2824      2825      2828      2821      2820      2824      2825
      2822      2820      2824      2825      2823      2820      2824      2825
      2824      2825      2828      2829      2824      2825      2828      2830
      2824      2825      2828      2836      2825      2828      2830      2831
      2825      2828      2836      2837      2825      2828      2836      2838
      2825      2828      2836      2839      2826      2825      2828      2829
      2826      2825      2828      2830      2826      2825      2828      2836
      2827      2825      2828      2829      2827      2825      2828      2830
      2827      2825      2828      2836      2828      2830      2831      2832
      2828      2830      2831      2833      2828      2836      2839      2840
      2829      2828      2830      2831      2829      2828      2836      2837
      2829      2828      2836      2838      2829      2828      2836      2839
      2830      2828      2836      2837      2830      2828      2836      2838
      2830      2828      2836      2839      2830      2831      2833      2834
      2830      2831      2833      2835      2830      2831      2833      2845
      2831      2830      2828      2836      2831      2833      2845      2846
      2831      2833      2845      2847      2831      2833      2845      2848
      2832      2831      2833      2834      2832      2831      2833      2835
      2832      2831      2833      2845      2833      2845      2848      2849
      2833      2845      2848      2850      2833      2845      2848      2851
      2834      2833      2845      2846      2834      2833      2845      2847
      2834      2833      2845      2848      2835      2833      2845      2846
      2835      2833      2845      2847      2835      2833      2845      2848
      2836      2839      2840      2841      2836      2839      2840      2842
      2837      2836      2839      2840      2838      2836      2839      2840
      2839      2840      2842      2843      2839      2840      2842      2844
      2839      2840      2842      2892      2840      2842      2892      2893
      2840      2842      2892      2894      2840      2842      2892      2895
      2841      2840      2842      2843      2841      2840      2842      2844
      2841      2840      2842      2892      2842      2892      2895      2896
      2842      2892      2895      2897      2842      2892      2895      2898
      2843      2842      2892      2893      2843      2842      2892      2894
      2843      2842      2892      2895      2844      2842      2892      2893
      2844      2842      2892      2894      2844      2842      2892      2895
      2845      2848      2851      2852      2845      2848      2851      2853
      2846      2845      2848      2849      2846      2845      2848      2850
      2846      2845      2848      2851      2847      2845      2848      2849
      2847      2845      2848      2850      2847      2845      2848      2851
      2848      2851      2853      2854      2848      2851      2853      2855
      2849      2848      2851      2852      2849      2848      2851      2853
      2850      2848      2851      2852      2850      2848      2851      2853
      2851      2853      2855      2856      2851      2853      2855      2857
      2851      2853      2855      2858      2852      2851      2853      2854
      2852      2851      2853      2855      2853      2855      2858      2859
      2853      2855      2858      2860      2854      2853      2855      2856
      2854      2853      2855      2857      2854      2853      2855      2858
      2855      2858      2860      2861      2855      2858      2860      2862
      2856      2855      2858      2859      2856      2855      2858      2860
      2857      2855      2858      2859      2857      2855      2858      2860
      2858      2860      2862      2863      2858      2860      2862      2864
      2858      2860      2862      2865      2859      2858      2860      2861
      2859      2858      2860      2862      2860      2862      2865      2866
      2860      2862      2865      2867      2861      2860      2862      2863
      2861      2860      2862      2864      2861      2860      2862      2865
      2862      2865      2867      2868      2862      2865      2867      2869
      2863      2862      2865      2866      2863      2862      2865      2867
      2864      2862      2865      2866      2864      2862      2865      2867
      2865      2867      2869      2870      2865      2867      2869      2871
      2865      2867      2869      2872      2866      2865      2867      2868
      2866      2865      2867      2869      2867      2869      2872      2873
      2867      2869      2872      2874      2868      2867      2869      2870
      2868      2867      2869      2871      2868      2867      2869      2872
      2869      2872      2874      2875      2869      2872      2874      2876
      2870      2869      2872      2873      2870      2869      2872      2874
      2871      2869      2872      2873      2871      2869      2872      2874
      2872      2874      2876      2877      2872      2874      2876      2878
      2872      2874      2876      2879      2873      2872      2874      2875
      2873      2872      2874      2876      2874      2876      2879      2880
      2874      2876      2879      2881      2874      2876      2879      2882
      2875      2874      2876      2877      2875      2874      2876      2878
      2875      2874      2876      2879      2876      2879      2882      2883
      2876      2879      2882      2884      2876      2879      2882      2885
      2877      2876      2879      2880      2877      2876      2879      2881
      2877      2876      2879      2882      2878      2876      2879      2880
      2878      2876      2879      2881      2878      2876      2879      2882
      2879      2882      2885      2886      2879      2882      2885      2887
      2879      2882      2885      2888      2880      2879      2882      2883
      2880      2879      2882      2884      2880      2879      2882      2885
      2881      2879      2882      2883      2881      2879      2882      2884
      2881      2879      2882      2885      2882      2885      2888      2889
      2882      2885      2888      2890      2882      2885      2888      2891
      2883      2882      2885      2886      2883      2882      2885      2887
      2883      2882      2885      2888      2884      2882      2885      2886
      2884      2882      2885      2887      2884      2882      2885      2888
      2886      2885      2888      2889      2886      2885      2888      2890
      2886      2885      2888      2891      2887      2885      2888      2889
      2887      2885      2888      2890      2887      2885      2888      2891
      2892      2895      2898      2899      2892      2895      2898      2900
      2892      2895      2898      2901      2893      2892      2895      2896
      2893      2892      2895      2897      2893      2892      2895      2898
      2894      2892      2895      2896      2894      2892      2895      2897
      2894      2892      2895      2898      2895      2898      2901      2902
      2895      2898      2901      2903      2895      2898      2901      2904
      2896      2895      2898      2899      2896      2895      2898      2900
      2896      2895      2898      2901      2897      2895      2898      2899
      2897      2895      2898      2900      2897      2895      2898      2901
      2898      2901      2904      2905      2898      2901      2904      2906
      2898      2901      2904      2907      2899      2898      2901      2902
      2899      2898      2901      2903      2899      2898      2901      2904
      2900      2898      2901      2902      2900      2898      2901      2903
      2900      2898      2901      2904      2901      2904      2907      2908
      2901      2904      2907      2909      2901      2904      2907      2910
      2902      2901      2904      2905      2902      2901      2904      2906
      2902      2901      2904      2907      2903      2901      2904      2905
      2903      2901      2904      2906      2903      2901      2904      2907
      2904      2907      2910      2911      2904      2907      2910      2912
      2904      2907      2910      2913      2905      2904      2907      2908
      2905      2904      2907      2909      2905      2904      2907      2910
      2906      2904      2907      2908      2906      2904      2907      2909
      2906      2904      2907      2910      2907      2910      2913      2914
      2907      2910      2913      2915      2907      2910      2913      2916
      2908      2907      2910      2911      2908      2907      2910      2912
      2908      2907      2910      2913      2909      2907      2910      2911
      2909      2907      2910      2912      2909      2907      2910      2913
      2910      2913      2916      2917      2910      2913      2916      2918
      2910      2913      2916      2919      2911      2910      2913      2914
      2911      2910      2913      2915      2911      2910      2913      2916
      2912      2910      2913      2914      2912      2910      2913      2915
      2912      2910      2913      2916      2913      2916      2919      2920
      2913      2916      2919      2921      2913      2916      2919      2922
      2914      2913      2916      2917      2914      2913      2916      2918
      2914      2913      2916      2919      2915      2913      2916      2917
      2915      2913      2916      2918      2915      2913      2916      2919
      2916      2919      2922      2923      2916      2919      2922      2924
      2916      2919      2922      2925      2917      2916      2919      2920
      2917      2916      2919      2921      2917      2916      2919      2922
      2918      2916      2919      2920      2918      2916      2919      2921
      2918      2916      2919      2922      2919      2922      2925      2926
      2919      2922      2925      2927      2919      2922      2925      2928
      2920      2919      2922      2923      2920      2919      2922      2924
      2920      2919      2922      2925      2921      2919      2922      2923
      2921      2919      2922      2924      2921      2919      2922      2925
      2922      2925      2928      2929      2922      2925      2928      2930
      2922      2925      2928      2931      2923      2922      2925      2926
      2923      2922      2925      2927      2923      2922      2925      2928
      2924      2922      2925      2926      2924      2922      2925      2927
      2924      2922      2925      2928      2925      2928      2931      2932
      2925      2928      2931      2933      2925      2928      2931      2934
      2926      2925      2928      2929      2926      2925      2928      2930
      2926      2925      2928      2931      2927      2925      2928      2929
      2927      2925      2928      2930      2927      2925      2928      2931
      2928      2931      2934      2935      2928      2931      2934      2936
      2928      2931      2934      2937      2929      2928      2931      2932
      2929      2928      2931      2933      2929      2928      2931      2934
      2930      2928      2931      2932      2930      2928      2931      2933
      2930      2928      2931      2934      2931      2934      2937      2938
      2931      2934      2937      2939      2931      2934      2937      2940
      2932      2931      2934      2935      2932      2931      2934      2936
      2932      2931      2934      2937      2933      2931      2934      2935
      2933      2931      2934      2936      2933      2931      2934      2937
      2935      2934      2937      2938      2935      2934      2937      2939
      2935      2934      2937      2940      2936      2934      2937      2938
      2936      2934      2937      2939      2936      2934      2937      2940
      2941      2945      2948      2949      2941      2945      2948      2950
      2941      2945      2948      2954      2942      2941      2945      2946
      2942      2941      2945      2947      2942      2941      2945      2948
      2943      2941      2945      2946      2943      2941      2945      2947
      2943      2941      2945      2948      2944      2941      2945      2946
      2944      2941      2945      2947      2944      2941      2945      2948
      2945      2948      2954      2951      2946      2945      2948      2949
      2946      2945      2948      2950      2946      2945      2948      2954
      2947      2945      2948      2949      2947      2945      2948      2950
      2947      2945      2948      2954      2948      2954      2951      2952
      2948      2954      2951      2953      2948      2954      2951      2955
      2949      2948      2954      2951      2950      2948      2954      2951
      2951      2955      2956      2957      2951      2955      2956      2958
      2951      2955      2956      2959      2952      2951      2955      2956
      2953      2951      2955      2956      2954      2951      2955      2956
      2955      2956      2959      2960      2955      2956      2959      2961
      2955      2956      2959      2967      2956      2959      2961      2962
      2956      2959      2967      2968      2956      2959      2967      2969
      2956      2959      2967      2970      2957      2956      2959      2960
      2957      2956      2959      2961      2957      2956      2959      2967
      2958      2956      2959      2960      2958      2956      2959      2961
      2958      2956      2959      2967      2959      2961      2962      2963
      2959      2961      2962      2964      2959      2967      2970      2971
      2960      2959      2961      2962      2960      2959      2967      2968
      2960      2959      2967      2969      2960      2959      2967      2970
      2961      2959      2967      2968      2961      2959      2967      2969
      2961      2959      2967      2970      2961      2962      2964      2965
      2961      2962      2964      2966      2961      2962      2964      2976
      2962      2961      2959      2967      2962      2964      2976      2977
      2962      2964      2976      2978      2962      2964      2976      2979
      2963      2962      2964      2965      2963      2962      2964      2966
      2963      2962      2964      2976      2964      2976      2979      2980
      2964      2976      2979      2981      2964      2976      2979      2982
      2965      2964      2976      2977      2965      2964      2976      2978
      2965      2964      2976      2979      2966      2964      2976      2977
      2966      2964      2976      2978      2966      2964      2976      2979
      2967      2970      2971      2972      2967      2970      2971      2973
      2968      2967      2970      2971      2969      2967      2970      2971
      2970      2971      2973      2974      2970      2971      2973      2975
      2970      2971      2973      3023      2971      2973      3023      3024
      2971      2973      3023      3025      2971      2973      3023      3026
      2972      2971      2973      2974      2972      2971      2973      2975
      2972      2971      2973      3023      2973      3023      3026      3027
      2973      3023      3026      3028      2973      3023      3026      3029
      2974      2973      3023      3024      2974      2973      3023      3025
      2974      2973      3023      3026      2975      2973      3023      3024
      2975      2973      3023      3025      2975      2973      3023      3026
      2976      2979      2982      2983      2976      2979      2982      2984
      2976      2979      2982      2985      2977      2976      2979      2980
      2977      2976      2979      2981      2977      2976      2979      2982
      2978      2976      2979      2980      2978      2976      2979      2981
      2978      2976      2979      2982      2979      2982      2985      2986
      2979      2982      2985      2987      2979      2982      2985      2988
      2980      2979      2982      2983      2980      2979      2982      2984
      2980      2979      2982      2985      2981      2979      2982      2983
      2981      2979      2982      2984      2981      2979      2982      2985
      2982      2985      2988      2989      2982      2985      2988      2990
      2982      2985      2988      2991      2983      2982      2985      2986
      2983      2982      2985      2987      2983      2982      2985      2988
      2984      2982      2985      2986      2984      2982      2985      2987
      2984      2982      2985      2988      2985      2988      2991      2992
      2985      2988      2991      2993      2985      2988      2991      2994
      2986      2985      2988      2989      2986      2985      2988      2990
      2986      2985      2988      2991      2987      2985      2988      2989
      2987      2985      2988      2990      2987      2985      2988      2991
      2988      2991      2994      2995      2988      2991      2994      2996
      2989      2988      2991      2992      2989      2988      2991      2993
      2989      2988      2991      2994      2990      2988      2991      2992
      2990      2988      2991      2993      2990      2988      2991      2994
      2991      2994      2996      2997      2991      2994      2996      2998
      2992      2991      2994      2995      2992      2991      2994      2996
      2993      2991      2994      2995      2993      2991      2994      2996
      2994      2996      2998      2999      2994      2996      2998      3000
      2994      2996      2998      3001      2995      2994      2996      2997
      2995      2994      2996      2998      2996      2998      3001      3002
      2996      2998      3001      3003      2996      2998      3001      3004
      2997      2996      2998      2999      2997      2996      2998      3000
      2997      2996      2998      3001      2998      3001      3004      3005
      2998      3001      3004      3006      2998      3001      3004      3007
      2999      2998      3001      3002      2999      2998      3001      3003
      2999      2998      3001      3004      3000      2998      3001      3002
      3000      2998      3001      3003      3000      2998      3001      3004
      3001      3004      3007      3008      3001      3004      3007      3009
      3001      3004      3007      3010      3002      3001      3004      3005
      3002      3001      3004      3006      3002      3001      3004      3007
      3003      3001      3004      3005      3003      3001      3004      3006
      3003      3001      3004      3007      3004      3007      3010      3011
      3004      3007      3010      3012      3004      3007      3010      3013
      3005      3004      3007      3008      3005      3004      3007      3009
      3005      3004      3007      3010      3006      3004      3007      3008
      3006      3004      3007      3009      3006      3004      3007      3010
      3007      3010      3013      3014      3007      3010      3013      3015
      3007      3010      3013      3016      3008      3007      3010      3011
      3008      3007      3010      3012      3008      3007      3010      3013
      3009      3007      3010      3011      3009      3007      3010      3012
      3009      3007      3010      3013      3010      3013      3016      3017
      3010      3013      3016      3018      3010      3013      3016      3019
      3011      3010      3013      3014      3011      3010      3013      3015
      3011      3010      3013      3016      3012      3010      3013      3014
      3012      3010      3013      3015      3012      3010      3013      3016
      3013      3016      3019      3020      3013      3016      3019      3021
      3013      3016      3019      3022      3014      3013      3016      3017
      3014      3013      3016      3018      3014      3013      3016      3019
      3015      3013      3016      3017      3015      3013      3016      3018
      3015      3013      3016      3019      3017      3016      3019      3020
      3017      3016      3019      3021      3017      3016      3019      3022
      3018      3016      3019      3020      3018      3016      3019      3021
      3018      3016      3019      3022      3023      3026      3029      3030
      3023      3026      3029      3031      3023      3026      3029      3032
      3024      3023      3026      3027      3024      3023      3026      3028
      3024      3023      3026      3029      3025      3023      3026      3027
      3025      3023      3026      3028      3025      3023      3026      3029
      3026      3029      3032      3033      3026      3029      3032      3034
      3026      3029      3032      3035      3027      3026      3029      3030
      3027      3026      3029      3031      3027      3026      3029      3032
      3028      3026      3029      3030      3028      3026      3029      3031
      3028      3026      3029      3032      3029      3032      3035      3036
      3029      3032      3035      3037      3029      3032      3035      3038
      3030      3029      3032      3033      3030      3029      3032      3034
      3030      3029      3032      3035      3031      3029      3032      3033
      3031      3029      3032      3034      3031      3029      3032      3035
      3032      3035      3038      3039      3032      3035      3038      3040
      3032      3035      3038      3041      3033      3032      3035      3036
      3033      3032      3035      3037      3033      3032      3035      3038
      3034      3032      3035      3036      3034      3032      3035      3037
      3034      3032      3035      3038      3035      3038      3041      3042
      3035      3038      3041      3043      3035      3038      3041      3044
      3036      3035      3038      3039      3036      3035      3038      3040
      3036      3035      3038      3041      3037      3035      3038      3039
      3037      3035      3038      3040      3037      3035      3038      3041
      3038      3041      3044      3045      3038      3041      3044      3046
      3038      3041      3044      3047      3039      3038      3041      3042
      3039      3038      3041      3043      3039      3038      3041      3044
      3040      3038      3041      3042      3040      3038      3041      3043
      3040      3038      3041      3044      3041      3044      3047      3048
      3041      3044      3047      3049      3041      3044      3047      3050
      3042      3041      3044      3045      3042      3041      3044      3046
      3042      3041      3044      3047      3043      3041      3044      3045
      3043      3041      3044      3046      3043      3041      3044      3047
      3044      3047      3050      3051      3044      3047      3050      3052
      3044      3047      3050      3053      3045      3044      3047      3048
      3045      3044      3047      3049      3045      3044      3047      3050
      3046      3044      3047      3048      3046      3044      3047      3049
      3046      3044      3047      3050      3047      3050      3053      3054
      3047      3050      3053      3055      3047      3050      3053      3056
      3048      3047      3050      3051      3048      3047      3050      3052
      3048      3047      3050      3053      3049      3047      3050      3051
      3049      3047      3050      3052      3049      3047      3050      3053
      3050      3053      3056      3057      3050      3053      3056      3058
      3050      3053      3056      3059      3051      3050      3053      3054
      3051      3050      3053      3055      3051      3050      3053      3056
      3052      3050      3053      3054      3052      3050      3053      3055
      3052      3050      3053      3056      3053      3056      3059      3060
      3053      3056      3059      3061      3053      3056      3059      3062
      3054      3053      3056      3057      3054      3053      3056      3058
      3054      3053      3056      3059      3055      3053      3056      3057
      3055      3053      3056      3058      3055      3053      3056      3059
      3056      3059      3062      3063      3056      3059      3062      3064
      3056      3059      3062      3065      3057      3056      3059      3060
      3057      3056      3059      3061      3057      3056      3059      3062
      3058      3056      3059      3060      3058      3056      3059      3061
      3058      3056      3059      3062      3059      3062      3065      3066
      3059      3062      3065      3067      3059      3062      3065      3068
      3060      3059      3062      3063      3060      3059      3062      3064
      3060      3059      3062      3065      3061      3059      3062      3063
      3061      3059      3062      3064      3061      3059      3062      3065
      3062      3065      3068      3069      3062      3065      3068      3070
      3062      3065      3068      3071      3063      3062      3065      3066
      3063      3062      3065      3067      3063      3062      3065      3068
      3064      3062      3065      3066      3064      3062      3065      3067
      3064      3062      3065      3068      3066      3065      3068      3069
      3066      3065      3068      3070      3066      3065      3068      3071
      3067      3065      3068      3069      3067      3065      3068      3070
      3067      3065      3068      3071      3072      3085      3088      3089
      3072      3085      3088      3090      3072      3085      3088      3094
      3073      3072      3077      3078      3073      3072      3077      3079
      3073      3072      3077      3080      3073      3072      3081      3082
      3073      3072      3081      3083      3073      3072      3081      3084
      3073      3072      3085      3086      3073      3072      3085      3087
      3073      3072      3085      3088      3074      3073      3072      3077
      3074      3073      3072      3081      3074      3073      3072      3085
      3075      3073      3072      3077      3075      3073      3072      3081
      3075      3073      3072      3085      3076      3073      3072      3077
      3076      3073      3072      3081      3076      3073      3072      3085
      3077      3072      3081      3082      3077      3072      3081      3083
      3077      3072      3081      3084      3077      3072      3085      3086
      3077      3072      3085      3087      3077      3072      3085      3088
      3078      3077      3072      3081      3078      3077      3072      3085
      3079      3077      3072      3081      3079      3077      3072      3085
      3080      3077      3072      3081      3080      3077      3072      3085
      3081      3072      3085      3086      3081      3072      3085      3087
      3081      3072      3085      3088      3082      3081      3072      3085
      3083      3081      3072      3085      3084      3081      3072      3085
      3085      3088      3094      3091      3086      3085      3088      3089
      3086      3085      3088      3090      3086      3085      3088      3094
      3087      3085      3088      3089      3087      3085      3088      3090
      3087      3085      3088      3094      3088      3094      3091      3092
      3088      3094      3091      3093      3088      3094      3091      3095
      3089      3088      3094      3091      3090      3088      3094      3091
      3091      3095      3096      3097      3091      3095      3096      3098
      3091      3095      3096      3099      3092      3091      3095      3096
      3093      3091      3095      3096      3094      3091      3095      3096
      3095      3096      3099      3100      3095      3096      3099      3101
      3095      3096      3099      3107      3096      3099      3101      3102
      3096      3099      3107      3108      3096      3099      3107      3109
      3096      3099      3107      3110      3097      3096      3099      3100
      3097      3096      3099      3101      3097      3096      3099      3107
      3098      3096      3099      3100      3098      3096      3099      3101
      3098      3096      3099      3107      3099      3101      3102      3103
      3099      3101      3102      3104      3099      3107      3110      3111
      3100      3099      3101      3102      3100      3099      3107      3108
      3100      3099      3107      3109      3100      3099      3107      3110
      3101      3099      3107      3108      3101      3099      3107      3109
      3101      3099      3107      3110      3101      3102      3104      3105
      3101      3102      3104      3106      3101      3102      3104      3116
      3102      3101      3099      3107      3102      3104      3116      3117
      3102      3104      3116      3118      3102      3104      3116      3119
      3103      3102      3104      3105      3103      3102      3104      3106
      3103      3102      3104      3116      3104      3116      3119      3120
      3104      3116      3119      3121      3104      3116      3119      3122
      3105      3104      3116      3117      3105      3104      3116      3118
      3105      3104      3116      3119      3106      3104      3116      3117
      3106      3104      3116      3118      3106      3104      3116      3119
      3107      3110      3111      3112      3107      3110      3111      3113
      3108      3107      3110      3111      3109      3107      3110      3111
      3110      3111      3113      3114      3110      3111      3113      3115
      3110      3111      3113      3161      3111      3113      3161      3162
      3111      3113      3161      3163      3111      3113      3161      3164
      3112      3111      3113      3114      3112      3111      3113      3115
      3112      3111      3113      3161      3113      3161      3164      3165
      3113      3161      3164      3166      3113      3161      3164      3167
      3114      3113      3161      3162      3114      3113      3161      3163
      3114      3113      3161      3164      3115      3113      3161      3162
      3115      3113      3161      3163      3115      3113      3161      3164
      3116      3119      3122      3123      3116      3119      3122      3124
      3116      3119      3122      3125      3117      3116      3119      3120
      3117      3116      3119      3121      3117      3116      3119      3122
      3118      3116      3119      3120      3118      3116      3119      3121
      3118      3116      3119      3122      3119      3122      3125      3126
      3119      3122      3125      3127      3119      3122      3125      3128
      3120      3119      3122      3123      3120      3119      3122      3124
      3120      3119      3122      3125      3121      3119      3122      3123
      3121      3119      3122      3124      3121      3119      3122      3125
      3122      3125      3128      3129      3122      3125      3128      3130
      3122      3125      3128      3131      3123      3122      3125      3126
      3123      3122      3125      3127      3123      3122      3125      3128
      3124      3122      3125      3126      3124      3122      3125      3127
      3124      3122      3125      3128      3125      3128      3131      3132
      3125      3128      3131      3133      3125      3128      3131      3134
      3126      3125      3128      3129      3126      3125      3128      3130
      3126      3125      3128      3131      3127      3125      3128      3129
      3127      3125      3128      3130      3127      3125      3128      3131
      3128      3131      3134      3135      3128      3131      3134      3136
      3129      3128      3131      3132      3129      3128      3131      3133
      3129      3128      3131      3134      3130      3128      3131      3132
      3130      3128      3131      3133      3130      3128      3131      3134
      3131      3134      3136      3137      3131      3134      3136      3138
      3132      3131      3134      3135      3132      3131      3134      3136
      3133      3131      3134      3135      3133      3131      3134      3136
      3134      3136      3138      3139      3134      3136      3138      3140
      3134      3136      3138      3141      3135      3134      3136      3137
      3135      3134      3136      3138      3136      3138      3141      3142
      3136      3138      3141      3143      3137      3136      3138      3139
      3137      3136      3138      3140      3137      3136      3138      3141
      3138      3141      3143      3144      3138      3141      3143      3145
      3139      3138      3141      3142      3139      3138      3141      3143
      3140      3138      3141      3142      3140      3138      3141      3143
      3141      3143      3145      3146      3141      3143      3145      3147
      3141      3143      3145      3148      3142      3141      3143      3144
      3142      3141      3143      3145      3143      3145      3148      3149
      3143      3145      3148      3150      3143      3145      3148      3151
      3144      3143      3145      3146      3144      3143      3145      3147
      3144      3143      3145      3148      3145      3148      3151      3152
      3145      3148      3151      3153      3145      3148      3151      3154
      3146      3145      3148      3149      3146      3145      3148      3150
      3146      3145      3148      3151      3147      3145      3148      3149
      3147      3145      3148      3150      3147      3145      3148      3151
      3148      3151      3154      3155      3148      3151      3154      3156
      3148      3151      3154      3157      3149      3148      3151      3152
      3149      3148      3151      3153      3149      3148      3151      3154
      3150      3148      3151      3152      3150      3148      3151      3153
      3150      3148      3151      3154      3151      3154      3157      3158
      3151      3154      3157      3159      3151      3154      3157      3160
      3152      3151      3154      3155      3152      3151      3154      3156
      3152      3151      3154      3157      3153      3151      3154      3155
      3153      3151      3154      3156      3153      3151      3154      3157
      3155      3154      3157      3158      3155      3154      3157      3159
      3155      3154      3157      3160      3156      3154      3157      3158
      3156      3154      3157      3159      3156      3154      3157      3160
      3161      3164      3167      3168      3161      3164      3167      3169
      3161      3164      3167      3170      3162      3161      3164      3165
      3162      3161      3164      3166      3162      3161      3164      3167
      3163      3161      3164      3165      3163      3161      3164      3166
      3163      3161      3164      3167      3164      3167      3170      3171
      3164      3167      3170      3172      3164      3167      3170      3173
      3165      3164      3167      3168      3165      3164      3167      3169
      3165      3164      3167      3170      3166      3164      3167      3168
      3166      3164      3167      3169      3166      3164      3167      3170
      3167      3170      3173      3174      3167      3170      3173      3175
      3167      3170      3173      3176      3168      3167      3170      3171
      3168      3167      3170      3172      3168      3167      3170      3173
      3169      3167      3170      3171      3169      3167      3170      3172
      3169      3167      3170      3173      3170      3173      3176      3177
      3170      3173      3176      3178      3170      3173      3176      3179
      3171      3170      3173      3174      3171      3170      3173      3175
      3171      3170      3173      3176      3172      3170      3173      3174
      3172      3170      3173      3175      3172      3170      3173      3176
      3173      3176      3179      3180      3173      3176      3179      3181
      3173      3176      3179      3182      3174      3173      3176      3177
      3174      3173      3176      3178      3174      3173      3176      3179
      3175      3173      3176      3177      3175      3173      3176      3178
      3175      3173      3176      3179      3176      3179      3182      3183
      3176      3179      3182      3184      3176      3179      3182      3185
      3177      3176      3179      3180      3177      3176      3179      3181
      3177      3176      3179      3182      3178      3176      3179      3180
      3178      3176      3179      3181      3178      3176      3179      3182
      3179      3182      3185      3186      3179      3182      3185      3187
      3179      3182      3185      3188      3180      3179      3182      3183
      3180      3179      3182      3184      3180      3179      3182      3185
      3181      3179      3182      3183      3181      3179      3182      3184
      3181      3179      3182      3185      3182      3185      3188      3189
      3182      3185      3188      3190      3182      3185      3188      3191
      3183      3182      3185      3186      3183      3182      3185      3187
      3183      3182      3185      3188      3184      3182      3185      3186
      3184      3182      3185      3187      3184      3182      3185      3188
      3185      3188      3191      3192      3185      3188      3191      3193
      3185      3188      3191      3194      3186      3185      3188      3189
      3186      3185      3188      3190      3186      3185      3188      3191
      3187      3185      3188      3189      3187      3185      3188      3190
      3187      3185      3188      3191      3188      3191      3194      3195
      3188      3191      3194      3196      3188      3191      3194      3197
      3189      3188      3191      3192      3189      3188      3191      3193
      3189      3188      3191      3194      3190      3188      3191      3192
      3190      3188      3191      3193      3190      3188      3191      3194
      3191      3194      3197      3198      3191      3194      3197      3199
      3191      3194      3197      3200      3192      3191      3194      3195
      3192      3191      3194      3196      3192      3191      3194      3197
      3193      3191      3194      3195      3193      3191      3194      3196
      3193      3191      3194      3197      3194      3197      3200      3201
      3194      3197      3200      3202      3194      3197      3200      3203
      3195      3194      3197      3198      3195      3194      3197      3199
      3195      3194      3197      3200      3196      3194      3197      3198
      3196      3194      3197      3199      3196      3194      3197      3200
      3197      3200      3203      3204      3197      3200      3203      3205
      3197      3200      3203      3206      3198      3197      3200      3201
      3198      3197      3200      3202      3198      3197      3200      3203
      3199      3197      3200      3201      3199      3197      3200      3202
      3199      3197      3200      3203      3200      3203      3206      3207
      3200      3203      3206      3208      3200      3203      3206      3209
      3201      3200      3203      3204      3201      3200      3203      3205
      3201      3200      3203      3206      3202      3200      3203      3204
      3202      3200      3203      3205      3202      3200      3203      3206
      3204      3203      3206      3207      3204      3203      3206      3208
      3204      3203      3206      3209      3205      3203      3206      3207
      3205      3203      3206      3208      3205      3203      3206      3209
      3210      3223      3226      3227      3210      3223      3226      3228
      3210      3223      3226      3233      3211      3210      3215      3216
      3211      3210      3215      3217      3211      3210      3215      3218
      3211      3210      3219      3220      3211      3210      3219      3221
      3211      3210      3219      3222      3211      3210      3223      3224
      3211      3210      3223      3225      3211      3210      3223      3226
      3212      3211      3210      3215      3212      3211      3210      3219
      3212      3211      3210      3223      3213      3211      3210      3215
      3213      3211      3210      3219      3213      3211      3210      3223
      3214      3211      3210      3215      3214      3211      3210      3219
      3214      3211      3210      3223      3215      3210      3219      3220
      3215      3210      3219      3221      3215      3210      3219      3222
      3215      3210      3223      3224      3215      3210      3223      3225
      3215      3210      3223      3226      3216      3215      3210      3219
      3216      3215      3210      3223      3217      3215      3210      3219
      3217      3215      3210      3223      3218      3215      3210      3219
      3218      3215      3210      3223      3219      3210      3223      3224
      3219      3210      3223      3225      3219      3210      3223      3226
      3220      3219      3210      3223      3221      3219      3210      3223
      3222      3219      3210      3223      3223      3226      3233      3229
      3224      3223      3226      3227      3224      3223      3226      3228
      3224      3223      3226      3233      3225      3223      3226      3227
      3225      3223      3226      3228      3225      3223      3226      3233
      3226      3233      3229      3230      3226      3233      3229      3231
      3226      3233      3229      3232      3227      3226      3233      3229
      3228      3226      3233      3229      3229      3232      3234      3235
      3229      3232      3234      3236      3229      3232      3234      3239
      3230      3229      3232      3234      3231      3229      3232      3234
      3232      3234      3239      3237      3232      3234      3239      3240
      3232      3234      3239      3241      3233      3229      3232      3234
      3234      3239      3237      3238      3234      3239      3237      3289
      3234      3239      3241      3242      3234      3239      3241      3243
      3234      3239      3241      3245      3235      3234      3239      3237
      3235      3234      3239      3240      3235      3234      3239      3241
      3236      3234      3239      3237      3236      3234      3239      3240
      3236      3234      3239      3241      3237      3239      3241      3242
      3237      3239      3241      3243      3237      3239      3241      3245
      3237      3289      3291      3292      3237      3289      3291      3293
      3237      3289      3291      3294      3238      3237      3239      3240
      3238      3237      3239      3241      3238      3237      3289      3290
      3238      3237      3289      3291      3239      3237      3289      3290
      3239      3237      3289      3291      3239      3241      3243      3244
      3239      3241      3245      3246      3239      3241      3245      3247
      3240      3239      3237      3289      3240      3239      3241      3242
      3240      3239      3241      3243      3240      3239      3241      3245
      3241      3239      3237      3289      3241      3245      3247      3248
      3241      3245      3247      3249      3242      3241      3243      3244
      3242      3241      3245      3246      3242      3241      3245      3247
      3243      3241      3245      3246      3243      3241      3245      3247
      3244      3243      3241      3245      3245      3247      3249      3250
      3245      3247      3249      3251      3245      3247      3249      3252
      3246      3245      3247      3248      3246      3245      3247      3249
      3247      3249      3252      3253      3247      3249      3252      3254
      3247      3249      3252      3255      3248      3247      3249      3250
      3248      3247      3249      3251      3248      3247      3249      3252
      3249      3252      3255      3256      3249      3252      3255      3257
      3249      3252      3255      3258      3250      3249      3252      3253
      3250      3249      3252      3254      3250      3249      3252      3255
      3251      3249      3252      3253      3251      3249      3252      3254
      3251      3249      3252      3255      3252      3255      3258      3259
      3252      3255      3258      3260      3252      3255      3258      3261
      3253      3252      3255      3256      3253      3252      3255      3257
      3253      3252      3255      3258      3254      3252      3255      3256
      3254      3252      3255      3257      3254      3252      3255      3258
      3255      3258      3261      3262      3255      3258      3261      3263
      3255      3258      3261      3264      3256      3255      3258      3259
      3256      3255      3258      3260      3256      3255      3258      3261
      3257      3255      3258      3259      3257      3255      3258      3260
      3257      3255      3258      3261      3258      3261      3264      3265
      3258      3261      3264      3266      3258      3261      3264      3267
      3259      3258      3261      3262      3259      3258      3261      3263
      3259      3258      3261      3264      3260      3258      3261      3262
      3260      3258      3261      3263      3260      3258      3261      3264
      3261      3264      3267      3268      3261      3264      3267      3269
      3261      3264      3267      3270      3262      3261      3264      3265
      3262      3261      3264      3266      3262      3261      3264      3267
      3263      3261      3264      3265      3263      3261      3264      3266
      3263      3261      3264      3267      3264      3267      3270      3271
      3264      3267      3270      3272      3264      3267      3270      3273
      3265      3264      3267      3268      3265      3264      3267      3269
      3265      3264      3267      3270      3266      3264      3267      3268
      3266      3264      3267      3269      3266      3264      3267      3270
      3267      3270      3273      3274      3267      3270      3273      3275
      3267      3270      3273      3276      3268      3267      3270      3271
      3268      3267      3270      3272      3268      3267      3270      3273
      3269      3267      3270      3271      3269      3267      3270      3272
      3269      3267      3270      3273      3270      3273      3276      3277
      3270      3273      3276      3278      3270      3273      3276      3279
      3271      3270      3273      3274      3271      3270      3273      3275
      3271      3270      3273      3276      3272      3270      3273      3274
      3272      3270      3273      3275      3272      3270      3273      3276
      3273      3276      3279      3280      3273      3276      3279      3281
      3273      3276      3279      3282      3274      3273      3276      3277
      3274      3273      3276      3278      3274      3273      3276      3279
      3275      3273      3276      3277      3275      3273      3276      3278
      3275      3273      3276      3279      3276      3279      3282      3283
      3276      3279      3282      3284      3276      3279      3282      3285
      3277      3276      3279      3280      3277      3276      3279      3281
      3277      3276      3279      3282      3278      3276      3279      3280
      3278      3276      3279      3281      3278      3276      3279      3282
      3279      3282      3285      3286      3279      3282      3285      3287
      3279      3282      3285      3288      3280      3279      3282      3283
      3280      3279      3282      3284      3280      3279      3282      3285
      3281      3279      3282      3283      3281      3279      3282      3284
      3281      3279      3282      3285      3283      3282      3285      3286
      3283      3282      3285      3287      3283      3282      3285      3288
      3284      3282      3285      3286      3284      3282      3285      3287
      3284      3282      3285      3288      3289      3291      3294      3295
      3289      3291      3294      3296      3289      3291      3294      3297
      3290      3289      3291      3292      3290      3289      3291      3293
      3290      3289      3291      3294      3291      3294      3297      3298
      3291      3294      3297      3299      3291      3294      3297      3300
      3292      3291      3294      3295      3292      3291      3294      3296
      3292      3291      3294      3297      3293      3291      3294      3295
      3293      3291      3294      3296      3293      3291      3294      3297
      3294      3297      3300      3301      3294      3297      3300      3302
      3294      3297      3300      3303      3295      3294      3297      3298
      3295      3294      3297      3299      3295      3294      3297      3300
      3296      3294      3297      3298      3296      3294      3297      3299
      3296      3294      3297      3300      3297      3300      3303      3304
      3297      3300      3303      3305      3297      3300      3303      3306
      3298      3297      3300      3301      3298      3297      3300      3302
      3298      3297      3300      3303      3299      3297      3300      3301
      3299      3297      3300      3302      3299      3297      3300      3303
      3300      3303      3306      3307      3300      3303      3306      3308
      3300      3303      3306      3309      3301      3300      3303      3304
      3301      3300      3303      3305      3301      3300      3303      3306
      3302      3300      3303      3304      3302      3300      3303      3305
      3302      3300      3303      3306      3303      3306      3309      3310
      3303      3306      3309      3311      3303      3306      3309      3312
      3304      3303      3306      3307      3304      3303      3306      3308
      3304      3303      3306      3309      3305      3303      3306      3307
      3305      3303      3306      3308      3305      3303      3306      3309
      3306      3309      3312      3313      3306      3309      3312      3314
      3307      3306      3309      3310      3307      3306      3309      3311
      3307      3306      3309      3312      3308      3306      3309      3310
      3308      3306      3309      3311      3308      3306      3309      3312
      3309      3312      3314      3315      3309      3312      3314      3316
      3310      3309      3312      3313      3310      3309      3312      3314
      3311      3309      3312      3313      3311      3309      3312      3314
      3312      3314      3316      3317      3312      3314      3316      3318
      3312      3314      3316      3319      3313      3312      3314      3315
      3313      3312      3314      3316      3314      3316      3319      3320
      3314      3316      3319      3321      3314      3316      3319      3322
      3315      3314      3316      3317      3315      3314      3316      3318
      3315      3314      3316      3319      3316      3319      3322      3323
      3316      3319      3322      3324      3316      3319      3322      3325
      3317      3316      3319      3320      3317      3316      3319      3321
      3317      3316      3319      3322      3318      3316      3319      3320
      3318      3316      3319      3321      3318      3316      3319      3322
      3319      3322      3325      3326      3319      3322      3325      3327
      3319      3322      3325      3328      3320      3319      3322      3323
      3320      3319      3322      3324      3320      3319      3322      3325
      3321      3319      3322      3323      3321      3319      3322      3324
      3321      3319      3322      3325      3322      3325      3328      3329
      3322      3325      3328      3330      3322      3325      3328      3331
      3323      3322      3325      3326      3323      3322      3325      3327
      3323      3322      3325      3328      3324      3322      3325      3326
      3324      3322      3325      3327      3324      3322      3325      3328
      3325      3328      3331      3332      3325      3328      3331      3333
      3325      3328      3331      3334      3326      3325      3328      3329
      3326      3325      3328      3330      3326      3325      3328      3331
      3327      3325      3328      3329      3327      3325      3328      3330
      3327      3325      3328      3331      3328      3331      3334      3335
      3328      3331      3334      3336      3328      3331      3334      3337
      3329      3328      3331      3332      3329      3328      3331      3333
      3329      3328      3331      3334      3330      3328      3331      3332
      3330      3328      3331      3333      3330      3328      3331      3334
      3331      3334      3337      3338      3331      3334      3337      3339
      3331      3334      3337      3340      3332      3331      3334      3335
      3332      3331      3334      3336      3332      3331      3334      3337
      3333      3331      3334      3335      3333      3331      3334      3336
      3333      3331      3334      3337      3335      3334      3337      3338
      3335      3334      3337      3339      3335      3334      3337      3340
      3336      3334      3337      3338      3336      3334      3337      3339
      3336      3334      3337      3340      3341      3354      3357      3358
      3341      3354      3357      3359      3341      3354      3357      3364
      3342      3341      3346      3347      3342      3341      3346      3348
      3342      3341      3346      3349      3342      3341      3350      3351
      3342      3341      3350      3352      3342      3341      3350      3353
      3342      3341      3354      3355      3342      3341      3354      3356
      3342      3341      3354      3357      3343      3342      3341      3346
      3343      3342      3341      3350      3343      3342      3341      3354
      3344      3342      3341      3346      3344      3342      3341      3350
      3344      3342      3341      3354      3345      3342      3341      3346
      3345      3342      3341      3350      3345      3342      3341      3354
      3346      3341      3350      3351      3346      3341      3350      3352
      3346      3341      3350      3353      3346      3341      3354      3355
      3346      3341      3354      3356      3346      3341      3354      3357
      3347      3346      3341      3350      3347      3346      3341      3354
      3348      3346      3341      3350      3348      3346      3341      3354
      3349      3346      3341      3350      3349      3346      3341      3354
      3350      3341      3354      3355      3350      3341      3354      3356
      3350      3341      3354      3357      3351      3350      3341      3354
      3352      3350      3341      3354      3353      3350      3341      3354
      3354      3357      3364      3360      3355      3354      3357      3358
      3355      3354      3357      3359      3355      3354      3357      3364
      3356      3354      3357      3358      3356      3354      3357      3359
      3356      3354      3357      3364      3357      3364      3360      3361
      3357      3364      3360      3362      3357      3364      3360      3363
      3358      3357      3364      3360      3359      3357      3364      3360
      3360      3363      3365      3366      3360      3363      3365      3367
      3360      3363      3365      3370      3361      3360      3363      3365
      3362      3360      3363      3365      3363      3365      3370      3368
      3363      3365      3370      3371      3363      3365      3370      3372
      3364      3360      3363      3365      3365      3370      3368      3369
      3365      3370      3368      3420      3365      3370      3372      3373
      3365      3370      3372      3374      3365      3370      3372      3376
      3366      3365      3370      3368      3366      3365      3370      3371
      3366      3365      3370      3372      3367      3365      3370      3368
      3367      3365      3370      3371      3367      3365      3370      3372
      3368      3370      3372      3373      3368      3370      3372      3374
      3368      3370      3372      3376      3368      3420      3422      3423
      3368      3420      3422      3424      3368      3420      3422      3425
      3369      3368      3370      3371      3369      3368      3370      3372
      3369      3368      3420      3421      3369      3368      3420      3422
      3370      3368      3420      3421      3370      3368      3420      3422
      3370      3372      3374      3375      3370      3372      3376      3377
      3370      3372      3376      3378      3371      3370      3368      3420
      3371      3370      3372      3373      3371      3370      3372      3374
      3371      3370      3372      3376      3372      3370      3368      3420
      3372      3376      3378      3379      3372      3376      3378      3380
      3373      3372      3374      3375      3373      3372      3376      3377
      3373      3372      3376      3378      3374      3372      3376      3377
      3374      3372      3376      3378      3375      3374      3372      3376
      3376      3378      3380      3381      3376      3378      3380      3382
      3376      3378      3380      3383      3377      3376      3378      3379
      3377      3376      3378      3380      3378      3380      3383      3384
      3378      3380      3383      3385      3378      3380      3383      3386
      3379      3378      3380      3381      3379      3378      3380      3382
      3379      3378      3380      3383      3380      3383      3386      3387
      3380      3383      3386      3388      3380      3383      3386      3389
      3381      3380      3383      3384      3381      3380      3383      3385
      3381      3380      3383      3386      3382      3380      3383      3384
      3382      3380      3383      3385      3382      3380      3383      3386
      3383      3386      3389      3390      3383      3386      3389      3391
      3383      3386      3389      3392      3384      3383      3386      3387
      3384      3383      3386      3388      3384      3383      3386      3389
      3385      3383      3386      3387      3385      3383      3386      3388
      3385      3383      3386      3389      3386      3389      3392      3393
      3386      3389      3392      3394      3386      3389      3392      3395
      3387      3386      3389      3390      3387      3386      3389      3391
      3387      3386      3389      3392      3388      3386      3389      3390
      3388      3386      3389      3391      3388      3386      3389      3392
      3389      3392      3395      3396      3389      3392      3395      3397
      3389      3392      3395      3398      3390      3389      3392      3393
      3390      3389      3392      3394      3390      3389      3392      3395
      3391      3389      3392      3393      3391      3389      3392      3394
      3391      3389      3392      3395      3392      3395      3398      3399
      3392      3395      3398      3400      3392      3395      3398      3401
      3393      3392      3395      3396      3393      3392      3395      3397
      3393      3392      3395      3398      3394      3392      3395      3396
      3394      3392      3395      3397      3394      3392      3395      3398
      3395      3398      3401      3402      3395      3398      3401      3403
      3395      3398      3401      3404      3396      3395      3398      3399
      3396      3395      3398      3400      3396      3395      3398      3401
      3397      3395      3398      3399      3397      3395      3398      3400
      3397      3395      3398      3401      3398      3401      3404      3405
      3398      3401      3404      3406      3398      3401      3404      3407
      3399      3398      3401      3402      3399      3398      3401      3403
      3399      3398      3401      3404      3400      3398      3401      3402
      3400      3398      3401      3403      3400      3398      3401      3404
      3401      3404      3407      3408      3401      3404      3407      3409
      3401      3404      3407      3410      3402      3401      3404      3405
      3402      3401      3404      3406      3402      3401      3404      3407
      3403      3401      3404      3405      3403      3401      3404      3406
      3403      3401      3404      3407      3404      3407      3410      3411
      3404      3407      3410      3412      3404      3407      3410      3413
      3405      3404      3407      3408      3405      3404      3407      3409
      3405      3404      3407      3410      3406      3404      3407      3408
      3406      3404      3407      3409      3406      3404      3407      3410
      3407      3410      3413      3414      3407      3410      3413      3415
      3407      3410      3413      3416      3408      3407      3410      3411
      3408      3407      3410      3412      3408      3407      3410      3413
      3409      3407      3410      3411      3409      3407      3410      3412
      3409      3407      3410      3413      3410      3413      3416      3417
      3410      3413      3416      3418      3410      3413      3416      3419
      3411      3410      3413      3414      3411      3410      3413      3415
      3411      3410      3413      3416      3412      3410      3413      3414
      3412      3410      3413      3415      3412      3410      3413      3416
      3414      3413      3416      3417      3414      3413      3416      3418
      3414      3413      3416      3419      3415      3413      3416      3417
      3415      3413      3416      3418      3415      3413      3416      3419
      3420      3422      3425      3426      3420      3422      3425      3427
      3420      3422      3425      3428      3421      3420      3422      3423
      3421      3420      3422      3424      3421      3420      3422      3425
      3422      3425      3428      3429      3422      3425      3428      3430
      3422      3425      3428      3431      3423      3422      3425      3426
      3423      3422      3425      3427      3423      3422      3425      3428
      3424      3422      3425      3426      3424      3422      3425      3427
      3424      3422      3425      3428      3425      3428      3431      3432
      3425      3428      3431      3433      3425      3428      3431      3434
      3426      3425      3428      3429      3426      3425      3428      3430
      3426      3425      3428      3431      3427      3425      3428      3429
      3427      3425      3428      3430      3427      3425      3428      3431
      3428      3431      3434      3435      3428      3431      3434      3436
      3428      3431      3434      3437      3429      3428      3431      3432
      3429      3428      3431      3433      3429      3428      3431      3434
      3430      3428      3431      3432      3430      3428      3431      3433
      3430      3428      3431      3434      3431      3434      3437      3438
      3431      3434      3437      3439      3431      3434      3437      3440
      3432      3431      3434      3435      3432      3431      3434      3436
      3432      3431      3434      3437      3433      3431      3434      3435
      3433      3431      3434      3436      3433      3431      3434      3437
      3434      3437      3440      3441      3434      3437      3440      3442
      3434      3437      3440      3443      3435      3434      3437      3438
      3435      3434      3437      3439      3435      3434      3437      3440
      3436      3434      3437      3438      3436      3434      3437      3439
      3436      3434      3437      3440      3437      3440      3443      3444
      3437      3440      3443      3445      3438      3437      3440      3441
      3438      3437      3440      3442      3438      3437      3440      3443
      3439      3437      3440      3441      3439      3437      3440      3442
      3439      3437      3440      3443      3440      3443      3445      3446
      3440      3443      3445      3447      3441      3440      3443      3444
      3441      3440      3443      3445      3442      3440      3443      3444
      3442      3440      3443      3445      3443      3445      3447      3448
      3443      3445      3447      3449      3443      3445      3447      3450
      3444      3443      3445      3446      3444      3443      3445      3447
      3445      3447      3450      3451      3445      3447      3450      3452
      3445      3447      3450      3453      3446      3445      3447      3448
      3446      3445      3447      3449      3446      3445      3447      3450
      3447      3450      3453      3454      3447      3450      3453      3455
      3447      3450      3453      3456      3448      3447      3450      3451
      3448      3447      3450      3452      3448      3447      3450      3453
      3449      3447      3450      3451      3449      3447      3450      3452
      3449      3447      3450      3453      3450      3453      3456      3457
      3450      3453      3456      3458      3450      3453      3456      3459
      3451      3450      3453      3454      3451      3450      3453      3455
      3451      3450      3453      3456      3452      3450      3453      3454
      3452      3450      3453      3455      3452      3450      3453      3456
      3453      3456      3459      3460      3453      3456      3459      3461
      3453      3456      3459      3462      3454      3453      3456      3457
      3454      3453      3456      3458      3454      3453      3456      3459
      3455      3453      3456      3457      3455      3453      3456      3458
      3455      3453      3456      3459      3456      3459      3462      3463
      3456      3459      3462      3464      3456      3459      3462      3465
      3457      3456      3459      3460      3457      3456      3459      3461
      3457      3456      3459      3462      3458      3456      3459      3460
      3458      3456      3459      3461      3458      3456      3459      3462
      3459      3462      3465      3466      3459      3462      3465      3467
      3459      3462      3465      3468      3460      3459      3462      3463
      3460      3459      3462      3464      3460      3459      3462      3465
      3461      3459      3462      3463      3461      3459      3462      3464
      3461      3459      3462      3465      3462      3465      3468      3469
      3462      3465      3468      3470      3462      3465      3468      3471
      3463      3462      3465      3466      3463      3462      3465      3467
      3463      3462      3465      3468      3464      3462      3465      3466
      3464      3462      3465      3467      3464      3462      3465      3468
      3466      3465      3468      3469      3466      3465      3468      3470
      3466      3465      3468      3471      3467      3465      3468      3469
      3467      3465      3468      3470      3467      3465      3468      3471
      3472      3476      3478      3479      3472      3476      3478      3480
      3472      3476      3481      3482      3472      3476      3481      3483
      3472      3476      3481      3487      3473      3472      3476      3477
      3473      3472      3476      3478      3473      3472      3476      3481
      3474      3472      3476      3477      3474      3472      3476      3478
      3474      3472      3476      3481      3475      3472      3476      3477
      3475      3472      3476      3478      3475      3472      3476      3481
      3476      3481      3487      3484      3477      3476      3478      3479
      3477      3476      3478      3480      3477      3476      3481      3482
      3477      3476      3481      3483      3477      3476      3481      3487
      3478      3476      3481      3482      3478      3476      3481      3483
      3478      3476      3481      3487      3479      3478      3476      3481
      3480      3478      3476      3481      3481      3487      3484      3485
      3481      3487      3484      3486      3481      3487      3484      3488
      3482      3481      3487      3484      3483      3481      3487      3484
      3484      3488      3489      3490      3484      3488      3489      3491
      3484      3488      3489      3492      3485      3484      3488      3489
      3486      3484      3488      3489      3487      3484      3488      3489
      3488      3489      3492      3493      3488      3489      3492      3494
      3488      3489      3492      3500      3489      3492      3494      3495
      3489      3492      3500      3501      3489      3492      3500      3502
      3489      3492      3500      3503      3490      3489      3492      3493
      3490      3489      3492      3494      3490      3489      3492      3500
      3491      3489      3492      3493      3491      3489      3492      3494
      3491      3489      3492      3500      3492      3494      3495      3496
      3492      3494      3495      3497      3492      3500      3503      3504
      3493      3492      3494      3495      3493      3492      3500      3501
      3493      3492      3500      3502      3493      3492      3500      3503
      3494      3492      3500      3501      3494      3492      3500      3502
      3494      3492      3500      3503      3494      3495      3497      3498
      3494      3495      3497      3499      3494      3495      3497      3509
      3495      3494      3492      3500      3495      3497      3509      3510
      3495      3497      3509      3511      3495      3497      3509      3512
      3496      3495      3497      3498      3496      3495      3497      3499
      3496      3495      3497      3509      3497      3509      3512      3513
      3497      3509      3512      3514      3497      3509      3512      3515
      3498      3497      3509      3510      3498      3497      3509      3511
      3498      3497      3509      3512      3499      3497      3509      3510
      3499      3497      3509      3511      3499      3497      3509      3512
      3500      3503      3504      3505      3500      3503      3504      3506
      3501      3500      3503      3504      3502      3500      3503      3504
      3503      3504      3506      3507      3503      3504      3506      3508
      3503      3504      3506      3556      3504      3506      3556      3557
      3504      3506      3556      3558      3504      3506      3556      3559
      3505      3504      3506      3507      3505      3504      3506      3508
      3505      3504      3506      3556      3506      3556      3559      3560
      3506      3556      3559      3561      3506      3556      3559      3562
      3507      3506      3556      3557      3507      3506      3556      3558
      3507      3506      3556      3559      3508      3506      3556      3557
      3508      3506      3556      3558      3508      3506      3556      3559
      3509      3512      3515      3516      3509      3512      3515      3517
      3510      3509      3512      3513      3510      3509      3512      3514
      3510      3509      3512      3515      3511      3509      3512      3513
      3511      3509      3512      3514      3511      3509      3512      3515
      3512      3515      3517      3518      3512      3515      3517      3519
      3513      3512      3515      3516      3513      3512      3515      3517
      3514      3512      3515      3516      3514      3512      3515      3517
      3515      3517      3519      3520      3515      3517      3519      3521
      3515      3517      3519      3522      3516      3515      3517      3518
      3516      3515      3517      3519      3517      3519      3522      3523
      3517      3519      3522      3524      3518      3517      3519      3520
      3518      3517      3519      3521      3518      3517      3519      3522
      3519      3522      3524      3525      3519      3522      3524      3526
      3520      3519      3522      3523      3520      3519      3522      3524
      3521      3519      3522      3523      3521      3519      3522      3524
      3522      3524      3526      3527      3522      3524      3526      3528
      3522      3524      3526      3529      3523      3522      3524      3525
      3523      3522      3524      3526      3524      3526      3529      3530
      3524      3526      3529      3531      3525      3524      3526      3527
      3525      3524      3526      3528      3525      3524      3526      3529
      3526      3529      3531      3532      3526      3529      3531      3533
      3527      3526      3529      3530      3527      3526      3529      3531
      3528      3526      3529      3530      3528      3526      3529      3531
      3529      3531      3533      3534      3529      3531      3533      3535
      3529      3531      3533      3536      3530      3529      3531      3532
      3530      3529      3531      3533      3531      3533      3536      3537
      3531      3533      3536      3538      3532      3531      3533      3534
      3532      3531      3533      3535      3532      3531      3533      3536
      3533      3536      3538      3539      3533      3536      3538      3540
      3534      3533      3536      3537      3534      3533      3536      3538
      3535      3533      3536      3537      3535      3533      3536      3538
      3536      3538      3540      3541      3536      3538      3540      3542
      3536      3538      3540      3543      3537      3536      3538      3539
      3537      3536      3538      3540      3538      3540      3543      3544
      3538      3540      3543      3545      3538      3540      3543      3546
      3539      3538      3540      3541      3539      3538      3540      3542
      3539      3538      3540      3543      3540      3543      3546      3547
      3540      3543      3546      3548      3540      3543      3546      3549
      3541      3540      3543      3544      3541      3540      3543      3545
      3541      3540      3543      3546      3542      3540      3543      3544
      3542      3540      3543      3545      3542      3540      3543      3546
      3543      3546      3549      3550      3543      3546      3549      3551
      3543      3546      3549      3552      3544      3543      3546      3547
      3544      3543      3546      3548      3544      3543      3546      3549
      3545      3543      3546      3547      3545      3543      3546      3548
      3545      3543      3546      3549      3546      3549      3552      3553
      3546      3549      3552      3554      3546      3549      3552      3555
      3547      3546      3549      3550      3547      3546      3549      3551
      3547      3546      3549      3552      3548      3546      3549      3550
      3548      3546      3549      3551      3548      3546      3549      3552
      3550      3549      3552      3553      3550      3549      3552      3554
      3550      3549      3552      3555      3551      3549      3552      3553
      3551      3549      3552      3554      3551      3549      3552      3555
      3556      3559      3562      3563      3556      3559      3562      3564
      3556      3559      3562      3565      3557      3556      3559      3560
      3557      3556      3559      3561      3557      3556      3559      3562
      3558      3556      3559      3560      3558      3556      3559      3561
      3558      3556      3559      3562      3559      3562      3565      3566
      3559      3562      3565      3567      3559      3562      3565      3568
      3560      3559      3562      3563      3560      3559      3562      3564
      3560      3559      3562      3565      3561      3559      3562      3563
      3561      3559      3562      3564      3561      3559      3562      3565
      3562      3565      3568      3569      3562      3565      3568      3570
      3562      3565      3568      3571      3563      3562      3565      3566
      3563      3562      3565      3567      3563      3562      3565      3568
      3564      3562      3565      3566      3564      3562      3565      3567
      3564      3562      3565      3568      3565      3568      3571      3572
      3565      3568      3571      3573      3565      3568      3571      3574
      3566      3565      3568      3569      3566      3565      3568      3570
      3566      3565      3568      3571      3567      3565      3568      3569
      3567      3565      3568      3570      3567      3565      3568      3571
      3568      3571      3574      3575      3568      3571      3574      3576
      3568      3571      3574      3577      3569      3568      3571      3572
      3569      3568      3571      3573      3569      3568      3571      3574
      3570      3568      3571      3572      3570      3568      3571      3573
      3570      3568      3571      3574      3571      3574      3577      3578
      3571      3574      3577      3579      3571      3574      3577      3580
      3572      3571      3574      3575      3572      3571      3574      3576
      3572      3571      3574      3577      3573      3571      3574      3575
      3573      3571      3574      3576      3573      3571      3574      3577
      3574      3577      3580      3581      3574      3577      3580      3582
      3574      3577      3580      3583      3575      3574      3577      3578
      3575      3574      3577      3579      3575      3574      3577      3580
      3576      3574      3577      3578      3576      3574      3577      3579
      3576      3574      3577      3580      3577      3580      3583      3584
      3577      3580      3583      3585      3577      3580      3583      3586
      3578      3577      3580      3581      3578      3577      3580      3582
      3578      3577      3580      3583      3579      3577      3580      3581
      3579      3577      3580      3582      3579      3577      3580      3583
      3580      3583      3586      3587      3580      3583      3586      3588
      3580      3583      3586      3589      3581      3580      3583      3584
      3581      3580      3583      3585      3581      3580      3583      3586
      3582      3580      3583      3584      3582      3580      3583      3585
      3582      3580      3583      3586      3583      3586      3589      3590
      3583      3586      3589      3591      3583      3586      3589      3592
      3584      3583      3586      3587      3584      3583      3586      3588
      3584      3583      3586      3589      3585      3583      3586      3587
      3585      3583      3586      3588      3585      3583      3586      3589
      3586      3589      3592      3593      3586      3589      3592      3594
      3586      3589      3592      3595      3587      3586      3589      3590
      3587      3586      3589      3591      3587      3586      3589      3592
      3588      3586      3589      3590      3588      3586      3589      3591
      3588      3586      3589      3592      3589      3592      3595      3596
      3589      3592      3595      3597      3589      3592      3595      3598
      3590      3589      3592      3593      3590      3589      3592      3594
      3590      3589      3592      3595      3591      3589      3592      3593
      3591      3589      3592      3594      3591      3589      3592      3595
      3592      3595      3598      3599      3592      3595      3598      3600
      3592      3595      3598      3601      3593      3592      3595      3596
      3593      3592      3595      3597      3593      3592      3595      3598
      3594      3592      3595      3596      3594      3592      3595      3597
      3594      3592      3595      3598      3595      3598      3601      3602
      3595      3598      3601      3603      3595      3598      3601      3604
      3596      3595      3598      3599      3596      3595      3598      3600
      3596      3595      3598      3601      3597      3595      3598      3599
      3597      3595      3598      3600      3597      3595      3598      3601
      3599      3598      3601      3602      3599      3598      3601      3603
      3599      3598      3601      3604      3600      3598      3601      3602
      3600      3598      3601      3603      3600      3598      3601      3604
      3605      3618      3621      3622      3605      3618      3621      3623
      3605      3618      3621      3627      3606      3605      3610      3611
      3606      3605      3610      3612      3606      3605      3610      3613
      3606      3605      3614      3615      3606      3605      3614      3616
      3606      3605      3614      3617      3606      3605      3618      3619
      3606      3605      3618      3620      3606      3605      3618      3621
      3607      3606      3605      3610      3607      3606      3605      3614
      3607      3606      3605      3618      3608      3606      3605      3610
      3608      3606      3605      3614      3608      3606      3605      3618
      3609      3606      3605      3610      3609      3606      3605      3614
      3609      3606      3605      3618      3610      3605      3614      3615
      3610      3605      3614      3616      3610      3605      3614      3617
      3610      3605      3618      3619      3610      3605      3618      3620
      3610      3605      3618      3621      3611      3610      3605      3614
      3611      3610      3605      3618      3612      3610      3605      3614
      3612      3610      3605      3618      3613      3610      3605      3614
      3613      3610      3605      3618      3614      3605      3618      3619
      3614      3605      3618      3620      3614      3605      3618      3621
      3615      3614      3605      3618      3616      3614      3605      3618
      3617      3614      3605      3618      3618      3621      3627      3624
      3619      3618      3621      3622      3619      3618      3621      3623
      3619      3618      3621      3627      3620      3618      3621      3622
      3620      3618      3621      3623      3620      3618      3621      3627
      3621      3627      3624      3625      3621      3627      3624      3626
      3621      3627      3624      3628      3622      3621      3627      3624
      3623      3621      3627      3624      3624      3628      3629      3630
      3624      3628      3629      3631      3624      3628      3629      3632
      3625      3624      3628      3629      3626      3624      3628      3629
      3627      3624      3628      3629      3628      3629      3632      3633
      3628      3629      3632      3634      3628      3629      3632      3640
      3629      3632      3634      3635      3629      3632      3640      3641
      3629      3632      3640      3642      3629      3632      3640      3643
      3630      3629      3632      3633      3630      3629      3632      3634
      3630      3629      3632      3640      3631      3629      3632      3633
      3631      3629      3632      3634      3631      3629      3632      3640
      3632      3634      3635      3636      3632      3634      3635      3637
      3632      3640      3643      3644      3633      3632      3634      3635
      3633      3632      3640      3641      3633      3632      3640      3642
      3633      3632      3640      3643      3634      3632      3640      3641
      3634      3632      3640      3642      3634      3632      3640      3643
      3634      3635      3637      3638      3634      3635      3637      3639
      3634      3635      3637      3649      3635      3634      3632      3640
      3635      3637      3649      3650      3635      3637      3649      3651
      3635      3637      3649      3652      3636      3635      3637      3638
      3636      3635      3637      3639      3636      3635      3637      3649
      3637      3649      3652      3653      3637      3649      3652      3654
      3637      3649      3652      3655      3638      3637      3649      3650
      3638      3637      3649      3651      3638      3637      3649      3652
      3639      3637      3649      3650      3639      3637      3649      3651
      3639      3637      3649      3652      3640      3643      3644      3645
      3640      3643      3644      3646      3641      3640      3643      3644
      3642      3640      3643      3644      3643      3644      3646      3647
      3643      3644      3646      3648      3643      3644      3646      3694
      3644      3646      3694      3695      3644      3646      3694      3696
      3644      3646      3694      3697      3645      3644      3646      3647
      3645      3644      3646      3648      3645      3644      3646      3694
      3646      3694      3697      3698      3646      3694      3697      3699
      3646      3694      3697      3700      3647      3646      3694      3695
      3647      3646      3694      3696      3647      3646      3694      3697
      3648      3646      3694      3695      3648      3646      3694      3696
      3648      3646      3694      3697      3649      3652      3655      3656
      3649      3652      3655      3657      3649      3652      3655      3658
      3650      3649      3652      3653      3650      3649      3652      3654
      3650      3649      3652      3655      3651      3649      3652      3653
      3651      3649      3652      3654      3651      3649      3652      3655
      3652      3655      3658      3659      3652      3655      3658      3660
      3652      3655      3658      3661      3653      3652      3655      3656
      3653      3652      3655      3657      3653      3652      3655      3658
      3654      3652      3655      3656      3654      3652      3655      3657
      3654      3652      3655      3658      3655      3658      3661      3662
      3655      3658      3661      3663      3655      3658      3661      3664
      3656      3655      3658      3659      3656      3655      3658      3660
      3656      3655      3658      3661      3657      3655      3658      3659
      3657      3655      3658      3660      3657      3655      3658      3661
      3658      3661      3664      3665      3658      3661      3664      3666
      3658      3661      3664      3667      3659      3658      3661      3662
      3659      3658      3661      3663      3659      3658      3661      3664
      3660      3658      3661      3662      3660      3658      3661      3663
      3660      3658      3661      3664      3661      3664      3667      3668
      3661      3664      3667      3669      3662      3661      3664      3665
      3662      3661      3664      3666      3662      3661      3664      3667
      3663      3661      3664      3665      3663      3661      3664      3666
      3663      3661      3664      3667      3664      3667      3669      3670
      3664      3667      3669      3671      3665      3664      3667      3668
      3665      3664      3667      3669      3666      3664      3667      3668
      3666      3664      3667      3669      3667      3669      3671      3672
      3667      3669      3671      3673      3667      3669      3671      3674
      3668      3667      3669      3670      3668      3667      3669      3671
      3669      3671      3674      3675      3669      3671      3674      3676
      3670      3669      3671      3672      3670      3669      3671      3673
      3670      3669      3671      3674      3671      3674      3676      3677
      3671      3674      3676      3678      3672      3671      3674      3675
      3672      3671      3674      3676      3673      3671      3674      3675
      3673      3671      3674      3676      3674      3676      3678      3679
      3674      3676      3678      3680      3674      3676      3678      3681
      3675      3674      3676      3677      3675      3674      3676      3678
      3676      3678      3681      3682      3676      3678      3681      3683
      3676      3678      3681      3684      3677      3676      3678      3679
      3677      3676      3678      3680      3677      3676      3678      3681
      3678      3681      3684      3685      3678      3681      3684      3686
      3678      3681      3684      3687      3679      3678      3681      3682
      3679      3678      3681      3683      3679      3678      3681      3684
      3680      3678      3681      3682      3680      3678      3681      3683
      3680      3678      3681      3684      3681      3684      3687      3688
      3681      3684      3687      3689      3681      3684      3687      3690
      3682      3681      3684      3685      3682      3681      3684      3686
      3682      3681      3684      3687      3683      3681      3684      3685
      3683      3681      3684      3686      3683      3681      3684      3687
      3684      3687      3690      3691      3684      3687      3690      3692
      3684      3687      3690      3693      3685      3684      3687      3688
      3685      3684      3687      3689      3685      3684      3687      3690
      3686      3684      3687      3688      3686      3684      3687      3689
      3686      3684      3687      3690      3688      3687      3690      3691
      3688      3687      3690      3692      3688      3687      3690      3693
      3689      3687      3690      3691      3689      3687      3690      3692
      3689      3687      3690      3693      3694      3697      3700      3701
      3694      3697      3700      3702      3694      3697      3700      3703
      3695      3694      3697      3698      3695      3694      3697      3699
      3695      3694      3697      3700      3696      3694      3697      3698
      3696      3694      3697      3699      3696      3694      3697      3700
      3697      3700      3703      3704      3697      3700      3703      3705
      3697      3700      3703      3706      3698      3697      3700      3701
      3698      3697      3700      3702      3698      3697      3700      3703
      3699      3697      3700      3701      3699      3697      3700      3702
      3699      3697      3700      3703      3700      3703      3706      3707
      3700      3703      3706      3708      3700      3703      3706      3709
      3701      3700      3703      3704      3701      3700      3703      3705
      3701      3700      3703      3706      3702      3700      3703      3704
      3702      3700      3703      3705      3702      3700      3703      3706
      3703      3706      3709      3710      3703      3706      3709      3711
      3703      3706      3709      3712      3704      3703      3706      3707
      3704      3703      3706      3708      3704      3703      3706      3709
      3705      3703      3706      3707      3705      3703      3706      3708
      3705      3703      3706      3709      3706      3709      3712      3713
      3706      3709      3712      3714      3706      3709      3712      3715
      3707      3706      3709      3710      3707      3706      3709      3711
      3707      3706      3709      3712      3708      3706      3709      3710
      3708      3706      3709      3711      3708      3706      3709      3712
      3709      3712      3715      3716      3709      3712      3715      3717
      3709      3712      3715      3718      3710      3709      3712      3713
      3710      3709      3712      3714      3710      3709      3712      3715
      3711      3709      3712      3713      3711      3709      3712      3714
      3711      3709      3712      3715      3712      3715      3718      3719
      3712      3715      3718      3720      3712      3715      3718      3721
      3713      3712      3715      3716      3713      3712      3715      3717
      3713      3712      3715      3718      3714      3712      3715      3716
      3714      3712      3715      3717      3714      3712      3715      3718
      3715      3718      3721      3722      3715      3718      3721      3723
      3715      3718      3721      3724      3716      3715      3718      3719
      3716      3715      3718      3720      3716      3715      3718      3721
      3717      3715      3718      3719      3717      3715      3718      3720
      3717      3715      3718      3721      3718      3721      3724      3725
      3718      3721      3724      3726      3718      3721      3724      3727
      3719      3718      3721      3722      3719      3718      3721      3723
      3719      3718      3721      3724      3720      3718      3721      3722
      3720      3718      3721      3723      3720      3718      3721      3724
      3721      3724      3727      3728      3721      3724      3727      3729
      3721      3724      3727      3730      3722      3721      3724      3725
      3722      3721      3724      3726      3722      3721      3724      3727
      3723      3721      3724      3725      3723      3721      3724      3726
      3723      3721      3724      3727      3724      3727      3730      3731
      3724      3727      3730      3732      3724      3727      3730      3733
      3725      3724      3727      3728      3725      3724      3727      3729
      3725      3724      3727      3730      3726      3724      3727      3728
      3726      3724      3727      3729      3726      3724      3727      3730
      3727      3730      3733      3734      3727      3730      3733      3735
      3727      3730      3733      3736      3728      3727      3730      3731
      3728      3727      3730      3732      3728      3727      3730      3733
      3729      3727      3730      3731      3729      3727      3730      3732
      3729      3727      3730      3733      3730      3733      3736      3737
      3730      3733      3736      3738      3730      3733      3736      3739
      3731      3730      3733      3734      3731      3730      3733      3735
      3731      3730      3733      3736      3732      3730      3733      3734
      3732      3730      3733      3735      3732      3730      3733      3736
      3733      3736      3739      3740      3733      3736      3739      3741
      3733      3736      3739      3742      3734      3733      3736      3737
      3734      3733      3736      3738      3734      3733      3736      3739
      3735      3733      3736      3737      3735      3733      3736      3738
      3735      3733      3736      3739      3737      3736      3739      3740
      3737      3736      3739      3741      3737      3736      3739      3742
      3738      3736      3739      3740      3738      3736      3739      3741
      3738      3736      3739      3742      3743      3747      3750      3751
      3743      3747      3750      3752      3743      3747      3750      3756
      3744      3743      3747      3748      3744      3743      3747      3749
      3744      3743      3747      3750      3745      3743      3747      3748
      3745      3743      3747      3749      3745      3743      3747      3750
      3746      3743      3747      3748      3746      3743      3747      3749
      3746      3743      3747      3750      3747      3750      3756      3753
      3748      3747      3750      3751      3748      3747      3750      3752
      3748      3747      3750      3756      3749      3747      3750      3751
      3749      3747      3750      3752      3749      3747      3750      3756
      3750      3756      3753      3754      3750      3756      3753      3755
      3750      3756      3753      3757      3751      3750      3756      3753
      3752      3750      3756      3753      3753      3757      3758      3759
      3753      3757      3758      3760      3753      3757      3758      3761
      3754      3753      3757      3758      3755      3753      3757      3758
      3756      3753      3757      3758      3757      3758      3761      3762
      3757      3758      3761      3763      3757      3758      3761      3769
      3758      3761      3763      3764      3758      3761      3769      3770
      3758      3761      3769      3771      3758      3761      3769      3772
      3759      3758      3761      3762      3759      3758      3761      3763
      3759      3758      3761      3769      3760      3758      3761      3762
      3760      3758      3761      3763      3760      3758      3761      3769
      3761      3763      3764      3765      3761      3763      3764      3766
      3761      3769      3772      3773      3762      3761      3763      3764
      3762      3761      3769      3770      3762      3761      3769      3771
      3762      3761      3769      3772      3763      3761      3769      3770
      3763      3761      3769      3771      3763      3761      3769      3772
      3763      3764      3766      3767      3763      3764      3766      3768
      3763      3764      3766      3778      3764      3763      3761      3769
      3764      3766      3778      3779      3764      3766      3778      3780
      3764      3766      3778      3781      3765      3764      3766      3767
      3765      3764      3766      3768      3765      3764      3766      3778
      3766      3778      3781      3782      3766      3778      3781      3783
      3766      3778      3781      3784      3767      3766      3778      3779
      3767      3766      3778      3780      3767      3766      3778      3781
      3768      3766      3778      3779      3768      3766      3778      3780
      3768      3766      3778      3781      3769      3772      3773      3774
      3769      3772      3773      3775      3770      3769      3772      3773
      3771      3769      3772      3773      3772      3773      3775      3776
      3772      3773      3775      3777      3772      3773      3775      3825
      3773      3775      3825      3826      3773      3775      3825      3827
      3773      3775      3825      3828      3774      3773      3775      3776
      3774      3773      3775      3777      3774      3773      3775      3825
      3775      3825      3828      3829      3775      3825      3828      3830
      3775      3825      3828      3831      3776      3775      3825      3826
      3776      3775      3825      3827      3776      3775      3825      3828
      3777      3775      3825      3826      3777      3775      3825      3827
      3777      3775      3825      3828      3778      3781      3784      3785
      3778      3781      3784      3786      3778      3781      3784      3787
      3779      3778      3781      3782      3779      3778      3781      3783
      3779      3778      3781      3784      3780      3778      3781      3782
      3780      3778      3781      3783      3780      3778      3781      3784
      3781      3784      3787      3788      3781      3784      3787      3789
      3781      3784      3787      3790      3782      3781      3784      3785
      3782      3781      3784      3786      3782      3781      3784      3787
      3783      3781      3784      3785      3783      3781      3784      3786
      3783      3781      3784      3787      3784      3787      3790      3791
      3784      3787      3790      3792      3784      3787      3790      3793
      3785      3784      3787      3788      3785      3784      3787      3789
      3785      3784      3787      3790      3786      3784      3787      3788
      3786      3784      3787      3789      3786      3784      3787      3790
      3787      3790      3793      3794      3787      3790      3793      3795
      3787      3790      3793      3796      3788      3787      3790      3791
      3788      3787      3790      3792      3788      3787      3790      3793
      3789      3787      3790      3791      3789      3787      3790      3792
      3789      3787      3790      3793      3790      3793      3796      3797
      3790      3793      3796      3798      3791      3790      3793      3794
      3791      3790      3793      3795      3791      3790      3793      3796
      3792      3790      3793      3794      3792      3790      3793      3795
      3792      3790      3793      3796      3793      3796      3798      3799
      3793      3796      3798      3800      3794      3793      3796      3797
      3794      3793      3796      3798      3795      3793      3796      3797
      3795      3793      3796      3798      3796      3798      3800      3801
      3796      3798      3800      3802      3796      3798      3800      3803
      3797      3796      3798      3799      3797      3796      3798      3800
      3798      3800      3803      3804      3798      3800      3803      3805
      3798      3800      3803      3806      3799      3798      3800      3801
      3799      3798      3800      3802      3799      3798      3800      3803
      3800      3803      3806      3807      3800      3803      3806      3808
      3800      3803      3806      3809      3801      3800      3803      3804
      3801      3800      3803      3805      3801      3800      3803      3806
      3802      3800      3803      3804      3802      3800      3803      3805
      3802      3800      3803      3806      3803      3806      3809      3810
      3803      3806      3809      3811      3803      3806      3809      3812
      3804      3803      3806      3807      3804      3803      3806      3808
      3804      3803      3806      3809      3805      3803      3806      3807
      3805      3803      3806      3808      3805      3803      3806      3809
      3806      3809      3812      3813      3806      3809      3812      3814
      3806      3809      3812      3815      3807      3806      3809      3810
      3807      3806      3809      3811      3807      3806      3809      3812
      3808      3806      3809      3810      3808      3806      3809      3811
      3808      3806      3809      3812      3809      3812      3815      3816
      3809      3812      3815      3817      3809      3812      3815      3818
      3810      3809      3812      3813      3810      3809      3812      3814
      3810      3809      3812      3815      3811      3809      3812      3813
      3811      3809      3812      3814      3811      3809      3812      3815
      3812      3815      3818      3819      3812      3815      3818      3820
      3812      3815      3818      3821      3813      3812      3815      3816
      3813      3812      3815      3817      3813      3812      3815      3818
      3814      3812      3815      3816      3814      3812      3815      3817
      3814      3812      3815      3818      3815      3818      3821      3822
      3815      3818      3821      3823      3815      3818      3821      3824
      3816      3815      3818      3819      3816      3815      3818      3820
      3816      3815      3818      3821      3817      3815      3818      3819
      3817      3815      3818      3820      3817      3815      3818      3821
      3819      3818      3821      3822      3819      3818      3821      3823
      3819      3818      3821      3824      3820      3818      3821      3822
      3820      3818      3821      3823      3820      3818      3821      3824
      3825      3828      3831      3832      3825      3828      3831      3833
      3825      3828      3831      3834      3826      3825      3828      3829
      3826      3825      3828      3830      3826      3825      3828      3831
      3827      3825      3828      3829      3827      3825      3828      3830
      3827      3825      3828      3831      3828      3831      3834      3835
      3828      3831      3834      3836      3828      3831      3834      3837
      3829      3828      3831      3832      3829      3828      3831      3833
      3829      3828      3831      3834      3830      3828      3831      3832
      3830      3828      3831      3833      3830      3828      3831      3834
      3831      3834      3837      3838      3831      3834      3837      3839
      3831      3834      3837      3840      3832      3831      3834      3835
      3832      3831      3834      3836      3832      3831      3834      3837
      3833      3831      3834      3835      3833      3831      3834      3836
      3833      3831      3834      3837      3834      3837      3840      3841
      3834      3837      3840      3842      3834      3837      3840      3843
      3835      3834      3837      3838      3835      3834      3837      3839
      3835      3834      3837      3840      3836      3834      3837      3838
      3836      3834      3837      3839      3836      3834      3837      3840
      3837      3840      3843      3844      3837      3840      3843      3845
      3837      3840      3843      3846      3838      3837      3840      3841
      3838      3837      3840      3842      3838      3837      3840      3843
      3839      3837      3840      3841      3839      3837      3840      3842
      3839      3837      3840      3843      3840      3843      3846      3847
      3840      3843      3846      3848      3840      3843      3846      3849
      3841      3840      3843      3844      3841      3840      3843      3845
      3841      3840      3843      3846      3842      3840      3843      3844
      3842      3840      3843      3845      3842      3840      3843      3846
      3843      3846      3849      3850      3843      3846      3849      3851
      3843      3846      3849      3852      3844      3843      3846      3847
      3844      3843      3846      3848      3844      3843      3846      3849
      3845      3843      3846      3847      3845      3843      3846      3848
      3845      3843      3846      3849      3846      3849      3852      3853
      3846      3849      3852      3854      3846      3849      3852      3855
      3847      3846      3849      3850      3847      3846      3849      3851
      3847      3846      3849      3852      3848      3846      3849      3850
      3848      3846      3849      3851      3848      3846      3849      3852
      3849      3852      3855      3856      3849      3852      3855      3857
      3849      3852      3855      3858      3850      3849      3852      3853
      3850      3849      3852      3854      3850      3849      3852      3855
      3851      3849      3852      3853      3851      3849      3852      3854
      3851      3849      3852      3855      3852      3855      3858      3859
      3852      3855      3858      3860      3852      3855      3858      3861
      3853      3852      3855      3856      3853      3852      3855      3857
      3853      3852      3855      3858      3854      3852      3855      3856
      3854      3852      3855      3857      3854      3852      3855      3858
      3855      3858      3861      3862      3855      3858      3861      3863
      3855      3858      3861      3864      3856      3855      3858      3859
      3856      3855      3858      3860      3856      3855      3858      3861
      3857      3855      3858      3859      3857      3855      3858      3860
      3857      3855      3858      3861      3858      3861      3864      3865
      3858      3861      3864      3866      3858      3861      3864      3867
      3859      3858      3861      3862      3859      3858      3861      3863
      3859      3858      3861      3864      3860      3858      3861      3862
      3860      3858      3861      3863      3860      3858      3861      3864
      3861      3864      3867      3868      3861      3864      3867      3869
      3861      3864      3867      3870      3862      3861      3864      3865
      3862      3861      3864      3866      3862      3861      3864      3867
      3863      3861      3864      3865      3863      3861      3864      3866
      3863      3861      3864      3867      3864      3867      3870      3871
      3864      3867      3870      3872      3864      3867      3870      3873
      3865      3864      3867      3868      3865      3864      3867      3869
      3865      3864      3867      3870      3866      3864      3867      3868
      3866      3864      3867      3869      3866      3864      3867      3870
      3868      3867      3870      3871      3868      3867      3870      3872
      3868      3867      3870      3873      3869      3867      3870      3871
      3869      3867      3870      3872      3869      3867      3870      3873
      3874      3878      3880      3881      3874      3878      3882      3883
      3874      3878      3882      3884      3874      3878      3882      3886
      3874      3894      3890      3886      3874      3894      3890      3891
      3874      3894      3890      3892      3874      3894      3899      3896
      3875      3874      3876      3877      3875      3874      3878      3879
      3875      3874      3878      3880      3875      3874      3878      3882
      3875      3874      3894      3890      3875      3874      3894      3895
      3875      3874      3894      3899      3876      3874      3878      3879
      3876      3874      3878      3880      3876      3874      3878      3882
      3876      3874      3894      3890      3876      3874      3894      3895
      3876      3874      3894      3899      3877      3876      3874      3878
      3877      3876      3874      3894      3878      3874      3894      3890
      3878      3874      3894      3895      3878      3874      3894      3899
      3878      3882      3884      3885      3878      3882      3886      3887
      3878      3882      3886      3888      3878      3882      3886      3890
      3879      3878      3874      3894      3879      3878      3880      3881
      3879      3878      3882      3883      3879      3878      3882      3884
      3879      3878      3882      3886      3880      3878      3874      3894
      3880      3878      3882      3883      3880      3878      3882      3884
      3880      3878      3882      3886      3881      3880      3878      3882
      3882      3878      3874      3894      3882      3886      3888      3889
      3882      3886      3890      3891      3882      3886      3890      3892
      3882      3886      3890      3894      3883      3882      3884      3885
      3883      3882      3886      3887      3883      3882      3886      3888
      3883      3882      3886      3890      3884      3882      3886      3887
      3884      3882      3886      3888      3884      3882      3886      3890
      3885      3884      3882      3886      3886      3890      3892      3893
      3886      3890      3894      3895      3886      3890      3894      3899
      3887      3886      3888      3889      3887      3886      3890      3891
      3887      3886      3890      3892      3887      3886      3890      3894
      3888      3886      3890      3891      3888      3886      3890      3892
      3888      3886      3890      3894      3889      3888      3886      3890
      3890      3894      3899      3896      3891      3890      3892      3893
      3891      3890      3894      3895      3891      3890      3894      3899
      3892      3890      3894      3895      3892      3890      3894      3899
      3893      3892      3890      3894      3894      3899      3896      3897
      3894      3899      3896      3898      3894      3899      3896      3900
      3895      3894      3899      3896      3896      3900      3901      3902
      3896      3900      3901      3903      3896      3900      3901      3904
      3897      3896      3900      3901      3898      3896      3900      3901
      3899      3896      3900      3901      3900      3901      3904      3905
      3900      3901      3904      3906      3900      3901      3904      3912
      3901      3904      3906      3907      3901      3904      3912      3913
      3901      3904      3912      3914      3901      3904      3912      3915
      3902      3901      3904      3905      3902      3901      3904      3906
      3902      3901      3904      3912      3903      3901      3904      3905
      3903      3901      3904      3906      3903      3901      3904      3912
      3904      3906      3907      3908      3904      3906      3907      3909
      3904      3912      3915      3916      3905      3904      3906      3907
      3905      3904      3912      3913      3905      3904      3912      3914
      3905      3904      3912      3915      3906      3904      3912      3913
      3906      3904      3912      3914      3906      3904      3912      3915
      3906      3907      3909      3910      3906      3907      3909      3911
      3906      3907      3909      3921      3907      3906      3904      3912
      3907      3909      3921      3922      3907      3909      3921      3923
      3907      3909      3921      3924      3908      3907      3909      3910
      3908      3907      3909      3911      3908      3907      3909      3921
      3909      3921      3924      3925      3909      3921      3924      3926
      3909      3921      3924      3927      3910      3909      3921      3922
      3910      3909      3921      3923      3910      3909      3921      3924
      3911      3909      3921      3922      3911      3909      3921      3923
      3911      3909      3921      3924      3912      3915      3916      3917
      3912      3915      3916      3918      3913      3912      3915      3916
      3914      3912      3915      3916      3915      3916      3918      3919
      3915      3916      3918      3920      3915      3916      3918      3968
      3916      3918      3968      3969      3916      3918      3968      3970
      3916      3918      3968      3971      3917      3916      3918      3919
      3917      3916      3918      3920      3917      3916      3918      3968
      3918      3968      3971      3972      3918      3968      3971      3973
      3918      3968      3971      3974      3919      3918      3968      3969
      3919      3918      3968      3970      3919      3918      3968      3971
      3920      3918      3968      3969      3920      3918      3968      3970
      3920      3918      3968      3971      3921      3924      3927      3928
      3921      3924      3927      3929      3922      3921      3924      3925
      3922      3921      3924      3926      3922      3921      3924      3927
      3923      3921      3924      3925      3923      3921      3924      3926
      3923      3921      3924      3927      3924      3927      3929      3930
      3924      3927      3929      3931      3925      3924      3927      3928
      3925      3924      3927      3929      3926      3924      3927      3928
      3926      3924      3927      3929      3927      3929      3931      3932
      3927      3929      3931      3933      3927      3929      3931      3934
      3928      3927      3929      3930      3928      3927      3929      3931
      3929      3931      3934      3935      3929      3931      3934      3936
      3930      3929      3931      3932      3930      3929      3931      3933
      3930      3929      3931      3934      3931      3934      3936      3937
      3931      3934      3936      3938      3932      3931      3934      3935
      3932      3931      3934      3936      3933      3931      3934      3935
      3933      3931      3934      3936      3934      3936      3938      3939
      3934      3936      3938      3940      3934      3936      3938      3941
      3935      3934      3936      3937      3935      3934      3936      3938
      3936      3938      3941      3942      3936      3938      3941      3943
      3937      3936      3938      3939      3937      3936      3938      3940
      3937      3936      3938      3941      3938      3941      3943      3944
      3938      3941      3943      3945      3939      3938      3941      3942
      3939      3938      3941      3943      3940      3938      3941      3942
      3940      3938      3941      3943      3941      3943      3945      3946
      3941      3943      3945      3947      3941      3943      3945      3948
      3942      3941      3943      3944      3942      3941      3943      3945
      3943      3945      3948      3949      3943      3945      3948      3950
      3944      3943      3945      3946      3944      3943      3945      3947
      3944      3943      3945      3948      3945      3948      3950      3951
      3945      3948      3950      3952      3946      3945      3948      3949
      3946      3945      3948      3950      3947      3945      3948      3949
      3947      3945      3948      3950      3948      3950      3952      3953
      3948      3950      3952      3954      3948      3950      3952      3955
      3949      3948      3950      3951      3949      3948      3950      3952
      3950      3952      3955      3956      3950      3952      3955      3957
      3950      3952      3955      3958      3951      3950      3952      3953
      3951      3950      3952      3954      3951      3950      3952      3955
      3952      3955      3958      3959      3952      3955      3958      3960
      3952      3955      3958      3961      3953      3952      3955      3956
      3953      3952      3955      3957      3953      3952      3955      3958
      3954      3952      3955      3956      3954      3952      3955      3957
      3954      3952      3955      3958      3955      3958      3961      3962
      3955      3958      3961      3963      3955      3958      3961      3964
      3956      3955      3958      3959      3956      3955      3958      3960
      3956      3955      3958      3961      3957      3955      3958      3959
      3957      3955      3958      3960      3957      3955      3958      3961
      3958      3961      3964      3965      3958      3961      3964      3966
      3958      3961      3964      3967      3959      3958      3961      3962
      3959      3958      3961      3963      3959      3958      3961      3964
      3960      3958      3961      3962      3960      3958      3961      3963
      3960      3958      3961      3964      3962      3961      3964      3965
      3962      3961      3964      3966      3962      3961      3964      3967
      3963      3961      3964      3965      3963      3961      3964      3966
      3963      3961      3964      3967      3968      3971      3974      3975
      3968      3971      3974      3976      3968      3971      3974      3977
      3969      3968      3971      3972      3969      3968      3971      3973
      3969      3968      3971      3974      3970      3968      3971      3972
      3970      3968      3971      3973      3970      3968      3971      3974
      3971      3974      3977      3978      3971      3974      3977      3979
      3971      3974      3977      3980      3972      3971      3974      3975
      3972      3971      3974      3976      3972      3971      3974      3977
      3973      3971      3974      3975      3973      3971      3974      3976
      3973      3971      3974      3977      3974      3977      3980      3981
      3974      3977      3980      3982      3974      3977      3980      3983
      3975      3974      3977      3978      3975      3974      3977      3979
      3975      3974      3977      3980      3976      3974      3977      3978
      3976      3974      3977      3979      3976      3974      3977      3980
      3977      3980      3983      3984      3977      3980      3983      3985
      3977      3980      3983      3986      3978      3977      3980      3981
      3978      3977      3980      3982      3978      3977      3980      3983
      3979      3977      3980      3981      3979      3977      3980      3982
      3979      3977      3980      3983      3980      3983      3986      3987
      3980      3983      3986      3988      3980      3983      3986      3989
      3981      3980      3983      3984      3981      3980      3983      3985
      3981      3980      3983      3986      3982      3980      3983      3984
      3982      3980      3983      3985      3982      3980      3983      3986
      3983      3986      3989      3990      3983      3986      3989      3991
      3983      3986      3989      3992      3984      3983      3986      3987
      3984      3983      3986      3988      3984      3983      3986      3989
      3985      3983      3986      3987      3985      3983      3986      3988
      3985      3983      3986      3989      3986      3989      3992      3993
      3986      3989      3992      3994      3986      3989      3992      3995
      3987      3986      3989      3990      3987      3986      3989      3991
      3987      3986      3989      3992      3988      3986      3989      3990
      3988      3986      3989      3991      3988      3986      3989      3992
      3989      3992      3995      3996      3989      3992      3995      3997
      3989      3992      3995      3998      3990      3989      3992      3993
      3990      3989      3992      3994      3990      3989      3992      3995
      3991      3989      3992      3993      3991      3989      3992      3994
      3991      3989      3992      3995      3992      3995      3998      3999
      3992      3995      3998      4000      3992      3995      3998      4001
      3993      3992      3995      3996      3993      3992      3995      3997
      3993      3992      3995      3998      3994      3992      3995      3996
      3994      3992      3995      3997      3994      3992      3995      3998
      3995      3998      4001      4002      3995      3998      4001      4003
      3995      3998      4001      4004      3996      3995      3998      3999
      3996      3995      3998      4000      3996      3995      3998      4001
      3997      3995      3998      3999      3997      3995      3998      4000
      3997      3995      3998      4001      3998      4001      4004      4005
      3998      4001      4004      4006      3998      4001      4004      4007
      3999      3998      4001      4002      3999      3998      4001      4003
      3999      3998      4001      4004      4000      3998      4001      4002
      4000      3998      4001      4003      4000      3998      4001      4004
      4001      4004      4007      4008      4001      4004      4007      4009
      4001      4004      4007      4010      4002      4001      4004      4005
      4002      4001      4004      4006      4002      4001      4004      4007
      4003      4001      4004      4005      4003      4001      4004      4006
      4003      4001      4004      4007      4004      4007      4010      4011
      4004      4007      4010      4012      4004      4007      4010      4013
      4005      4004      4007      4008      4005      4004      4007      4009
      4005      4004      4007      4010      4006      4004      4007      4008
      4006      4004      4007      4009      4006      4004      4007      4010
      4007      4010      4013      4014      4007      4010      4013      4015
      4007      4010      4013      4016      4008      4007      4010      4011
      4008      4007      4010      4012      4008      4007      4010      4013
      4009      4007      4010      4011      4009      4007      4010      4012
      4009      4007      4010      4013      4011      4010      4013      4014
      4011      4010      4013      4015      4011      4010      4013      4016
      4012      4010      4013      4014      4012      4010      4013      4015
      4012      4010      4013      4016      4017      4021      4024      4025
      4017      4021      4024      4055      4017      4063      4060      4055
      4017      4063      4060      4061      4017      4063      4060      4062
      4018      4017      4019      4020      4018      4017      4021      4022
      4018      4017      4021      4023      4018      4017      4021      4024
      4018      4017      4063      4060      4018      4017      4063      4064
      4018      4017      4063      4065      4019      4017      4021      4022
      4019      4017      4021      4023      4019      4017      4021      4024
      4019      4017      4063      4060      4019      4017      4063      4064
      4019      4017      4063      4065      4020      4019      4017      4021
      4020      4019      4017      4063      4021      4017      4063      4060
      4021      4017      4063      4064      4021      4017      4063      4065
      4021      4024      4025      4026      4021      4024      4025      4027
      4021      4024      4055      4053      4021      4024      4055      4056
      4021      4024      4055      4060      4022      4021      4017      4063
      4022      4021      4024      4025      4022      4021      4024      4055
      4023      4021      4017      4063      4023      4021      4024      4025
      4023      4021      4024      4055      4024      4021      4017      4063
      4024      4025      4027      4028      4024      4025      4027      4029
      4024      4025      4027      4030      4024      4055      4053      4030
      4024      4055      4053      4050      4024      4055      4053      4054
      4024      4055      4056      4057      4024      4055      4056      4058
      4024      4055      4056      4059      4024      4055      4060      4061
      4024      4055      4060      4062      4024      4055      4060      4063
      4025      4024      4055      4053      4025      4024      4055      4056
      4025      4024      4055      4060      4025      4027      4030      4031
      4025      4027      4030      4032      4025      4027      4030      4053
      4026      4025      4024      4055      4026      4025      4027      4028
      4026      4025      4027      4029      4026      4025      4027      4030
      4027      4025      4024      4055      4027      4030      4032      4033
      4027      4030      4032      4034      4027      4030      4032      4042
      4027      4030      4053      4050      4027      4030      4053      4054
      4027      4030      4053      4055      4028      4027      4030      4031
      4028      4027      4030      4032      4028      4027      4030      4053
      4029      4027      4030      4031      4029      4027      4030      4032
      4029      4027      4030      4053      4030      4032      4034      4035
      4030      4032      4034      4036      4030      4032      4034      4037
      4030      4032      4042      4040      4030      4032      4042      4043
      4030      4032      4042      4047      4030      4053      4050      4047
      4030      4053      4050      4051      4030      4053      4050      4052
      4030      4053      4055      4056      4030      4053      4055      4060
      4031      4030      4032      4033      4031      4030      4032      4034
      4031      4030      4032      4042      4031      4030      4053      4050
      4031      4030      4053      4054      4031      4030      4053      4055
      4032      4030      4053      4050      4032      4030      4053      4054
      4032      4030      4053      4055      4032      4034      4037      4038
      4032      4034      4037      4039      4032      4034      4037      4040
      4032      4042      4040      4037      4032      4042      4040      4041
      4032      4042      4040      4066      4032      4042      4043      4044
      4032      4042      4043      4045      4032      4042      4043      4046
      4032      4042      4047      4048      4032      4042      4047      4049
      4032      4042      4047      4050      4033      4032      4030      4053
      4033      4032      4034      4035      4033      4032      4034      4036
      4033      4032      4034      4037      4033      4032      4042      4040
      4033      4032      4042      4043      4033      4032      4042      4047
      4034      4032      4030      4053      4034      4032      4042      4040
      4034      4032      4042      4043      4034      4032      4042      4047
      4034      4037      4040      4041      4034      4037      4040      4042
      4034      4037      4040      4066      4035      4034      4032      4042
      4035      4034      4037      4038      4035      4034      4037      4039
      4035      4034      4037      4040      4036      4034      4032      4042
      4036      4034      4037      4038      4036      4034      4037      4039
      4036      4034      4037      4040      4037      4034      4032      4042
      4037      4040      4042      4043      4037      4040      4042      4047
      4037      4040      4066      4067      4037      4040      4066      4068
      4037      4040      4066      4072      4038      4037      4040      4041
      4038      4037      4040      4042      4038      4037      4040      4066
      4039      4037      4040      4041      4039      4037      4040      4042
      4039      4037      4040      4066      4040      4042      4043      4044
      4040      4042      4043      4045      4040      4042      4043      4046
      4040      4042      4047      4048      4040      4042      4047      4049
      4040      4042      4047      4050      4040      4066      4068      4069
      4040      4066      4068      4070      4040      4066      4068      4071
      4040      4066      4072      4073      4040      4066      4072      4074
      4040      4066      4072      4075      4041      4040      4042      4043
      4041      4040      4042      4047      4041      4040      4066      4067
      4041      4040      4066      4068      4041      4040      4066      4072
      4042      4032      4030      4053      4042      4040      4066      4067
      4042      4040      4066      4068      4042      4040      4066      4072
      4042      4047      4050      4051      4042      4047      4050      4052
      4042      4047      4050      4053      4043      4042      4040      4066
      4043      4042      4047      4048      4043      4042      4047      4049
      4043      4042      4047      4050      4044      4043      4042      4047
      4045      4043      4042      4047      4046      4043      4042      4047
      4047      4042      4040      4066      4047      4050      4053      4054
      4047      4050      4053      4055      4048      4047      4050      4051
      4048      4047      4050      4052      4048      4047      4050      4053
      4049      4047      4050      4051      4049      4047      4050      4052
      4049      4047      4050      4053      4050      4053      4055      4056
      4050      4053      4055      4060      4051      4050      4053      4054
      4051      4050      4053      4055      4052      4050      4053      4054
      4052      4050      4053      4055      4053      4055      4056      4057
      4053      4055      4056      4058      4053      4055      4056      4059
      4053      4055      4060      4061      4053      4055      4060      4062
      4053      4055      4060      4063      4054      4053      4055      4056
      4054      4053      4055      4060      4055      4060      4063      4064
      4055      4060      4063      4065      4056      4055      4060      4061
      4056      4055      4060      4062      4056      4055      4060      4063
      4057      4056      4055      4060      4058      4056      4055      4060
      4059      4056      4055      4060      4061      4060      4063      4064
      4061      4060      4063      4065      4062      4060      4063      4064
      4062      4060      4063      4065      4066      4072      4075      4076
      4066      4072      4075      4077      4066      4072      4075      4078
      4067      4066      4068      4069      4067      4066      4068      4070
      4067      4066      4068      4071      4067      4066      4072      4073
      4067      4066      4072      4074      4067      4066      4072      4075
      4068      4066      4072      4073      4068      4066      4072      4074
      4068      4066      4072      4075      4069      4068      4066      4072
      4070      4068      4066      4072      4071      4068      4066      4072
      4072      4075      4078      4079      4072      4075      4078      4080
      4072      4075      4078      4081      4073      4072      4075      4076
      4073      4072      4075      4077      4073      4072      4075      4078
      4074      4072      4075      4076      4074      4072      4075      4077
      4074      4072      4075      4078      4075      4078      4081      4082
      4075      4078      4081      4083      4075      4078      4081      4087
      4076      4075      4078      4079      4076      4075      4078      4080
      4076      4075      4078      4081      4077      4075      4078      4079
      4077      4075      4078      4080      4077      4075      4078      4081
      4078      4081      4083      4084      4078      4081      4083      4085
      4078      4081      4083      4086      4078      4081      4087      4088
      4078      4081      4087      4089      4078      4081      4087      4090
      4079      4078      4081      4082      4079      4078      4081      4083
      4079      4078      4081      4087      4080      4078      4081      4082
      4080      4078      4081      4083      4080      4078      4081      4087
      4082      4081      4083      4084      4082      4081      4083      4085
      4082      4081      4083      4086      4082      4081      4087      4088
      4082      4081      4087      4089      4082      4081      4087      4090
      4083      4081      4087      4088      4083      4081      4087      4089
      4083      4081      4087      4090      4084      4083      4081      4087
      4085      4083      4081      4087      4086      4083      4081      4087
      4091      4104      4107      4108      4091      4104      4107      4109
      4091      4104      4107      4114      4092      4091      4096      4097
      4092      4091      4096      4098      4092      4091      4096      4099
      4092      4091      4100      4101      4092      4091      4100      4102
      4092      4091      4100      4103      4092      4091      4104      4105
      4092      4091      4104      4106      4092      4091      4104      4107
      4093      4092      4091      4096      4093      4092      4091      4100
      4093      4092      4091      4104      4094      4092      4091      4096
      4094      4092      4091      4100      4094      4092      4091      4104
      4095      4092      4091      4096      4095      4092      4091      4100
      4095      4092      4091      4104      4096      4091      4100      4101
      4096      4091      4100      4102      4096      4091      4100      4103
      4096      4091      4104      4105      4096      4091      4104      4106
      4096      4091      4104      4107      4097      4096      4091      4100
      4097      4096      4091      4104      4098      4096      4091      4100
      4098      4096      4091      4104      4099      4096      4091      4100
      4099      4096      4091      4104      4100      4091      4104      4105
      4100      4091      4104      4106      4100      4091      4104      4107
      4101      4100      4091      4104      4102      4100      4091      4104
      4103      4100      4091      4104      4104      4107      4114      4110
      4105      4104      4107      4108      4105      4104      4107      4109
      4105      4104      4107      4114      4106      4104      4107      4108
      4106      4104      4107      4109      4106      4104      4107      4114
      4107      4114      4110      4111      4107      4114      4110      4112
      4107      4114      4110      4113      4108      4107      4114      4110
      4109      4107      4114      4110      4110      4113      4115      4116
      4110      4113      4115      4117      4110      4113      4115      4120
      4111      4110      4113      4115      4112      4110      4113      4115
      4113      4115      4120      4118      4113      4115      4120      4121
      4113      4115      4120      4122      4114      4110      4113      4115
      4115      4120      4118      4119      4115      4120      4118      4170
      4115      4120      4122      4123      4115      4120      4122      4124
      4115      4120      4122      4126      4116      4115      4120      4118
      4116      4115      4120      4121      4116      4115      4120      4122
      4117      4115      4120      4118      4117      4115      4120      4121
      4117      4115      4120      4122      4118      4120      4122      4123
      4118      4120      4122      4124      4118      4120      4122      4126
      4118      4170      4172      4173      4118      4170      4172      4174
      4118      4170      4172      4175      4119      4118      4120      4121
      4119      4118      4120      4122      4119      4118      4170      4171
      4119      4118      4170      4172      4120      4118      4170      4171
      4120      4118      4170      4172      4120      4122      4124      4125
      4120      4122      4126      4127      4120      4122      4126      4128
      4121      4120      4118      4170      4121      4120      4122      4123
      4121      4120      4122      4124      4121      4120      4122      4126
      4122      4120      4118      4170      4122      4126      4128      4129
      4122      4126      4128      4130      4123      4122      4124      4125
      4123      4122      4126      4127      4123      4122      4126      4128
      4124      4122      4126      4127      4124      4122      4126      4128
      4125      4124      4122      4126      4126      4128      4130      4131
      4126      4128      4130      4132      4126      4128      4130      4133
      4127      4126      4128      4129      4127      4126      4128      4130
      4128      4130      4133      4134      4128      4130      4133      4135
      4128      4130      4133      4136      4129      4128      4130      4131
      4129      4128      4130      4132      4129      4128      4130      4133
      4130      4133      4136      4137      4130      4133      4136      4138
      4130      4133      4136      4139      4131      4130      4133      4134
      4131      4130      4133      4135      4131      4130      4133      4136
      4132      4130      4133      4134      4132      4130      4133      4135
      4132      4130      4133      4136      4133      4136      4139      4140
      4133      4136      4139      4141      4133      4136      4139      4142
      4134      4133      4136      4137      4134      4133      4136      4138
      4134      4133      4136      4139      4135      4133      4136      4137
      4135      4133      4136      4138      4135      4133      4136      4139
      4136      4139      4142      4143      4136      4139      4142      4144
      4136      4139      4142      4145      4137      4136      4139      4140
      4137      4136      4139      4141      4137      4136      4139      4142
      4138      4136      4139      4140      4138      4136      4139      4141
      4138      4136      4139      4142      4139      4142      4145      4146
      4139      4142      4145      4147      4139      4142      4145      4148
      4140      4139      4142      4143      4140      4139      4142      4144
      4140      4139      4142      4145      4141      4139      4142      4143
      4141      4139      4142      4144      4141      4139      4142      4145
      4142      4145      4148      4149      4142      4145      4148      4150
      4142      4145      4148      4151      4143      4142      4145      4146
      4143      4142      4145      4147      4143      4142      4145      4148
      4144      4142      4145      4146      4144      4142      4145      4147
      4144      4142      4145      4148      4145      4148      4151      4152
      4145      4148      4151      4153      4145      4148      4151      4154
      4146      4145      4148      4149      4146      4145      4148      4150
      4146      4145      4148      4151      4147      4145      4148      4149
      4147      4145      4148      4150      4147      4145      4148      4151
      4148      4151      4154      4155      4148      4151      4154      4156
      4148      4151      4154      4157      4149      4148      4151      4152
      4149      4148      4151      4153      4149      4148      4151      4154
      4150      4148      4151      4152      4150      4148      4151      4153
      4150      4148      4151      4154      4151      4154      4157      4158
      4151      4154      4157      4159      4151      4154      4157      4160
      4152      4151      4154      4155      4152      4151      4154      4156
      4152      4151      4154      4157      4153      4151      4154      4155
      4153      4151      4154      4156      4153      4151      4154      4157
      4154      4157      4160      4161      4154      4157      4160      4162
      4154      4157      4160      4163      4155      4154      4157      4158
      4155      4154      4157      4159      4155      4154      4157      4160
      4156      4154      4157      4158      4156      4154      4157      4159
      4156      4154      4157      4160      4157      4160      4163      4164
      4157      4160      4163      4165      4157      4160      4163      4166
      4158      4157      4160      4161      4158      4157      4160      4162
      4158      4157      4160      4163      4159      4157      4160      4161
      4159      4157      4160      4162      4159      4157      4160      4163
      4160      4163      4166      4167      4160      4163      4166      4168
      4160      4163      4166      4169      4161      4160      4163      4164
      4161      4160      4163      4165      4161      4160      4163      4166
      4162      4160      4163      4164      4162      4160      4163      4165
      4162      4160      4163      4166      4164      4163      4166      4167
      4164      4163      4166      4168      4164      4163      4166      4169
      4165      4163      4166      4167      4165      4163      4166      4168
      4165      4163      4166      4169      4170      4172      4175      4176
      4170      4172      4175      4177      4170      4172      4175      4178
      4171      4170      4172      4173      4171      4170      4172      4174
      4171      4170      4172      4175      4172      4175      4178      4179
      4172      4175      4178      4180      4172      4175      4178      4181
      4173      4172      4175      4176      4173      4172      4175      4177
      4173      4172      4175      4178      4174      4172      4175      4176
      4174      4172      4175      4177      4174      4172      4175      4178
      4175      4178      4181      4182      4175      4178      4181      4183
      4175      4178      4181      4184      4176      4175      4178      4179
      4176      4175      4178      4180      4176      4175      4178      4181
      4177      4175      4178      4179      4177      4175      4178      4180
      4177      4175      4178      4181      4178      4181      4184      4185
      4178      4181      4184      4186      4178      4181      4184      4187
      4179      4178      4181      4182      4179      4178      4181      4183
      4179      4178      4181      4184      4180      4178      4181      4182
      4180      4178      4181      4183      4180      4178      4181      4184
      4181      4184      4187      4188      4181      4184      4187      4189
      4181      4184      4187      4190      4182      4181      4184      4185
      4182      4181      4184      4186      4182      4181      4184      4187
      4183      4181      4184      4185      4183      4181      4184      4186
      4183      4181      4184      4187      4184      4187      4190      4191
      4184      4187      4190      4192      4184      4187      4190      4193
      4185      4184      4187      4188      4185      4184      4187      4189
      4185      4184      4187      4190      4186      4184      4187      4188
      4186      4184      4187      4189      4186      4184      4187      4190
      4187      4190      4193      4194      4187      4190      4193      4195
      4188      4187      4190      4191      4188      4187      4190      4192
      4188      4187      4190      4193      4189      4187      4190      4191
      4189      4187      4190      4192      4189      4187      4190      4193
      4190      4193      4195      4196      4190      4193      4195      4197
      4191      4190      4193      4194      4191      4190      4193      4195
      4192      4190      4193      4194      4192      4190      4193      4195
      4193      4195      4197      4198      4193      4195      4197      4199
      4193      4195      4197      4200      4194      4193      4195      4196
      4194      4193      4195      4197      4195      4197      4200      4201
      4195      4197      4200      4202      4195      4197      4200      4203
      4196      4195      4197      4198      4196      4195      4197      4199
      4196      4195      4197      4200      4197      4200      4203      4204
      4197      4200      4203      4205      4197      4200      4203      4206
      4198      4197      4200      4201      4198      4197      4200      4202
      4198      4197      4200      4203      4199      4197      4200      4201
      4199      4197      4200      4202      4199      4197      4200      4203
      4200      4203      4206      4207      4200      4203      4206      4208
      4200      4203      4206      4209      4201      4200      4203      4204
      4201      4200      4203      4205      4201      4200      4203      4206
      4202      4200      4203      4204      4202      4200      4203      4205
      4202      4200      4203      4206      4203      4206      4209      4210
      4203      4206      4209      4211      4203      4206      4209      4212
      4204      4203      4206      4207      4204      4203      4206      4208
      4204      4203      4206      4209      4205      4203      4206      4207
      4205      4203      4206      4208      4205      4203      4206      4209
      4206      4209      4212      4213      4206      4209      4212      4214
      4206      4209      4212      4215      4207      4206      4209      4210
      4207      4206      4209      4211      4207      4206      4209      4212
      4208      4206      4209      4210      4208      4206      4209      4211
      4208      4206      4209      4212      4209      4212      4215      4216
      4209      4212      4215      4217      4209      4212      4215      4218
      4210      4209      4212      4213      4210      4209      4212      4214
      4210      4209      4212      4215      4211      4209      4212      4213
      4211      4209      4212      4214      4211      4209      4212      4215
      4212      4215      4218      4219      4212      4215      4218      4220
      4212      4215      4218      4221      4213      4212      4215      4216
      4213      4212      4215      4217      4213      4212      4215      4218
      4214      4212      4215      4216      4214      4212      4215      4217
      4214      4212      4215      4218      4216      4215      4218      4219
      4216      4215      4218      4220      4216      4215      4218      4221
      4217      4215      4218      4219      4217      4215      4218      4220
      4217      4215      4218      4221      4222      4226      4229      4230
      4222      4226      4229      4260      4222      4268      4265      4260
      4222      4268      4265      4266      4222      4268      4265      4267
      4223      4222      4224      4225      4223      4222      4226      4227
      4223      4222      4226      4228      4223      4222      4226      4229
      4223      4222      4268      4265      4223      4222      4268      4269
      4223      4222      4268      4270      4224      4222      4226      4227
      4224      4222      4226      4228      4224      4222      4226      4229
      4224      4222      4268      4265      4224      4222      4268      4269
      4224      4222      4268      4270      4225      4224      4222      4226
      4225      4224      4222      4268      4226      4222      4268      4265
      4226      4222      4268      4269      4226      4222      4268      4270
      4226      4229      4230      4231      4226      4229      4230      4232
      4226      4229      4260      4258      4226      4229      4260      4261
      4226      4229      4260      4265      4227      4226      4222      4268
      4227      4226      4229      4230      4227      4226      4229      4260
      4228      4226      4222      4268      4228      4226      4229      4230
      4228      4226      4229      4260      4229      4226      4222      4268
      4229      4230      4232      4233      4229      4230      4232      4234
      4229      4230      4232      4235      4229      4260      4258      4235
      4229      4260      4258      4255      4229      4260      4258      4259
      4229      4260      4261      4262      4229      4260      4261      4263
      4229      4260      4261      4264      4229      4260      4265      4266
      4229      4260      4265      4267      4229      4260      4265      4268
      4230      4229      4260      4258      4230      4229      4260      4261
      4230      4229      4260      4265      4230      4232      4235      4236
      4230      4232      4235      4237      4230      4232      4235      4258
      4231      4230      4229      4260      4231      4230      4232      4233
      4231      4230      4232      4234      4231      4230      4232      4235
      4232      4230      4229      4260      4232      4235      4237      4238
      4232      4235      4237      4239      4232      4235      4237      4247
      4232      4235      4258      4255      4232      4235      4258      4259
      4232      4235      4258      4260      4233      4232      4235      4236
      4233      4232      4235      4237      4233      4232      4235      4258
      4234      4232      4235      4236      4234      4232      4235      4237
      4234      4232      4235      4258      4235      4237      4239      4240
      4235      4237      4239      4241      4235      4237      4239      4242
      4235      4237      4247      4245      4235      4237      4247      4248
      4235      4237      4247      4252      4235      4258      4255      4252
      4235      4258      4255      4256      4235      4258      4255      4257
      4235      4258      4260      4261      4235      4258      4260      4265
      4236      4235      4237      4238      4236      4235      4237      4239
      4236      4235      4237      4247      4236      4235      4258      4255
      4236      4235      4258      4259      4236      4235      4258      4260
      4237      4235      4258      4255      4237      4235      4258      4259
      4237      4235      4258      4260      4237      4239      4242      4243
      4237      4239      4242      4244      4237      4239      4242      4245
      4237      4247      4245      4242      4237      4247      4245      4246
      4237      4247      4245      4271      4237      4247      4248      4249
      4237      4247      4248      4250      4237      4247      4248      4251
      4237      4247      4252      4253      4237      4247      4252      4254
      4237      4247      4252      4255      4238      4237      4235      4258
      4238      4237      4239      4240      4238      4237      4239      4241
      4238      4237      4239      4242      4238      4237      4247      4245
      4238      4237      4247      4248      4238      4237      4247      4252
      4239      4237      4235      4258      4239      4237      4247      4245
      4239      4237      4247      4248      4239      4237      4247      4252
      4239      4242      4245      4246      4239      4242      4245      4247
      4239      4242      4245      4271      4240      4239      4237      4247
      4240      4239      4242      4243      4240      4239      4242      4244
      4240      4239      4242      4245      4241      4239      4237      4247
      4241      4239      4242      4243      4241      4239      4242      4244
      4241      4239      4242      4245      4242      4239      4237      4247
      4242      4245      4247      4248      4242      4245      4247      4252
      4242      4245      4271      4272      4242      4245      4271      4273
      4242      4245      4271      4277      4243      4242      4245      4246
      4243      4242      4245      4247      4243      4242      4245      4271
      4244      4242      4245      4246      4244      4242      4245      4247
      4244      4242      4245      4271      4245      4247      4248      4249
      4245      4247      4248      4250      4245      4247      4248      4251
      4245      4247      4252      4253      4245      4247      4252      4254
      4245      4247      4252      4255      4245      4271      4273      4274
      4245      4271      4273      4275      4245      4271      4273      4276
      4245      4271      4277      4278      4245      4271      4277      4279
      4245      4271      4277      4280      4246      4245      4247      4248
      4246      4245      4247      4252      4246      4245      4271      4272
      4246      4245      4271      4273      4246      4245      4271      4277
      4247      4237      4235      4258      4247      4245      4271      4272
      4247      4245      4271      4273      4247      4245      4271      4277
      4247      4252      4255      4256      4247      4252      4255      4257
      4247      4252      4255      4258      4248      4247      4245      4271
      4248      4247      4252      4253      4248      4247      4252      4254
      4248      4247      4252      4255      4249      4248      4247      4252
      4250      4248      4247      4252      4251      4248      4247      4252
      4252      4247      4245      4271      4252      4255      4258      4259
      4252      4255      4258      4260      4253      4252      4255      4256
      4253      4252      4255      4257      4253      4252      4255      4258
      4254      4252      4255      4256      4254      4252      4255      4257
      4254      4252      4255      4258      4255      4258      4260      4261
      4255      4258      4260      4265      4256      4255      4258      4259
      4256      4255      4258      4260      4257      4255      4258      4259
      4257      4255      4258      4260      4258      4260      4261      4262
      4258      4260      4261      4263      4258      4260      4261      4264
      4258      4260      4265      4266      4258      4260      4265      4267
      4258      4260      4265      4268      4259      4258      4260      4261
      4259      4258      4260      4265      4260      4265      4268      4269
      4260      4265      4268      4270      4261      4260      4265      4266
      4261      4260      4265      4267      4261      4260      4265      4268
      4262      4261      4260      4265      4263      4261      4260      4265
      4264      4261      4260      4265      4266      4265      4268      4269
      4266      4265      4268      4270      4267      4265      4268      4269
      4267      4265      4268      4270      4271      4277      4280      4281
      4271      4277      4280      4282      4271      4277      4280      4283
      4272      4271      4273      4274      4272      4271      4273      4275
      4272      4271      4273      4276      4272      4271      4277      4278
      4272      4271      4277      4279      4272      4271      4277      4280
      4273      4271      4277      4278      4273      4271      4277      4279
      4273      4271      4277      4280      4274      4273      4271      4277
      4275      4273      4271      4277      4276      4273      4271      4277
      4277      4280      4283      4284      4277      4280      4283      4285
      4277      4280      4283      4286      4278      4277      4280      4281
      4278      4277      4280      4282      4278      4277      4280      4283
      4279      4277      4280      4281      4279      4277      4280      4282
      4279      4277      4280      4283      4280      4283      4286      4287
      4280      4283      4286      4288      4280      4283      4286      4292
      4281      4280      4283      4284      4281      4280      4283      4285
      4281      4280      4283      4286      4282      4280      4283      4284
      4282      4280      4283      4285      4282      4280      4283      4286
      4283      4286      4288      4289      4283      4286      4288      4290
      4283      4286      4288      4291      4283      4286      4292      4293
      4283      4286      4292      4294      4283      4286      4292      4295
      4284      4283      4286      4287      4284      4283      4286      4288
      4284      4283      4286      4292      4285      4283      4286      4287
      4285      4283      4286      4288      4285      4283      4286      4292
      4287      4286      4288      4289      4287      4286      4288      4290
      4287      4286      4288      4291      4287      4286      4292      4293
      4287      4286      4292      4294      4287      4286      4292      4295
      4288      4286      4292      4293      4288      4286      4292      4294
      4288      4286      4292      4295      4289      4288      4286      4292
      4290      4288      4286      4292      4291      4288      4286      4292
      4296      4300      4303      4304      4296      4300      4303      4305
      4296      4300      4303      4309      4297      4296      4300      4301
      4297      4296      4300      4302      4297      4296      4300      4303
      4298      4296      4300      4301      4298      4296      4300      4302
      4298      4296      4300      4303      4299      4296      4300      4301
      4299      4296      4300      4302      4299      4296      4300      4303
      4300      4303      4309      4306      4301      4300      4303      4304
      4301      4300      4303      4305      4301      4300      4303      4309
      4302      4300      4303      4304      4302      4300      4303      4305
      4302      4300      4303      4309      4303      4309      4306      4307
      4303      4309      4306      4308      4303      4309      4306      4310
      4304      4303      4309      4306      4305      4303      4309      4306
      4306      4310      4311      4312      4306      4310      4311      4313
      4306      4310      4311      4314      4307      4306      4310      4311
      4308      4306      4310      4311      4309      4306      4310      4311
      4310      4311      4314      4315      4310      4311      4314      4316
      4310      4311      4314      4322      4311      4314      4316      4317
      4311      4314      4322      4323      4311      4314      4322      4324
      4311      4314      4322      4325      4312      4311      4314      4315
      4312      4311      4314      4316      4312      4311      4314      4322
      4313      4311      4314      4315      4313      4311      4314      4316
      4313      4311      4314      4322      4314      4316      4317      4318
      4314      4316      4317      4319      4314      4322      4325      4326
      4315      4314      4316      4317      4315      4314      4322      4323
      4315      4314      4322      4324      4315      4314      4322      4325
      4316      4314      4322      4323      4316      4314      4322      4324
      4316      4314      4322      4325      4316      4317      4319      4320
      4316      4317      4319      4321      4316      4317      4319      4331
      4317      4316      4314      4322      4317      4319      4331      4332
      4317      4319      4331      4333      4317      4319      4331      4334
      4318      4317      4319      4320      4318      4317      4319      4321
      4318      4317      4319      4331      4319      4331      4334      4335
      4319      4331      4334      4336      4319      4331      4334      4337
      4320      4319      4331      4332      4320      4319      4331      4333
      4320      4319      4331      4334      4321      4319      4331      4332
      4321      4319      4331      4333      4321      4319      4331      4334
      4322      4325      4326      4327      4322      4325      4326      4328
      4323      4322      4325      4326      4324      4322      4325      4326
      4325      4326      4328      4329      4325      4326      4328      4330
      4325      4326      4328      4378      4326      4328      4378      4379
      4326      4328      4378      4380      4326      4328      4378      4381
      4327      4326      4328      4329      4327      4326      4328      4330
      4327      4326      4328      4378      4328      4378      4381      4382
      4328      4378      4381      4383      4328      4378      4381      4384
      4329      4328      4378      4379      4329      4328      4378      4380
      4329      4328      4378      4381      4330      4328      4378      4379
      4330      4328      4378      4380      4330      4328      4378      4381
      4331      4334      4337      4338      4331      4334      4337      4339
      4332      4331      4334      4335      4332      4331      4334      4336
      4332      4331      4334      4337      4333      4331      4334      4335
      4333      4331      4334      4336      4333      4331      4334      4337
      4334      4337      4339      4340      4334      4337      4339      4341
      4335      4334      4337      4338      4335      4334      4337      4339
      4336      4334      4337      4338      4336      4334      4337      4339
      4337      4339      4341      4342      4337      4339      4341      4343
      4337      4339      4341      4344      4338      4337      4339      4340
      4338      4337      4339      4341      4339      4341      4344      4345
      4339      4341      4344      4346      4340      4339      4341      4342
      4340      4339      4341      4343      4340      4339      4341      4344
      4341      4344      4346      4347      4341      4344      4346      4348
      4342      4341      4344      4345      4342      4341      4344      4346
      4343      4341      4344      4345      4343      4341      4344      4346
      4344      4346      4348      4349      4344      4346      4348      4350
      4344      4346      4348      4351      4345      4344      4346      4347
      4345      4344      4346      4348      4346      4348      4351      4352
      4346      4348      4351      4353      4347      4346      4348      4349
      4347      4346      4348      4350      4347      4346      4348      4351
      4348      4351      4353      4354      4348      4351      4353      4355
      4349      4348      4351      4352      4349      4348      4351      4353
      4350      4348      4351      4352      4350      4348      4351      4353
      4351      4353      4355      4356      4351      4353      4355      4357
      4351      4353      4355      4358      4352      4351      4353      4354
      4352      4351      4353      4355      4353      4355      4358      4359
      4353      4355      4358      4360      4354      4353      4355      4356
      4354      4353      4355      4357      4354      4353      4355      4358
      4355      4358      4360      4361      4355      4358      4360      4362
      4356      4355      4358      4359      4356      4355      4358      4360
      4357      4355      4358      4359      4357      4355      4358      4360
      4358      4360      4362      4363      4358      4360      4362      4364
      4358      4360      4362      4365      4359      4358      4360      4361
      4359      4358      4360      4362      4360      4362      4365      4366
      4360      4362      4365      4367      4360      4362      4365      4368
      4361      4360      4362      4363      4361      4360      4362      4364
      4361      4360      4362      4365      4362      4365      4368      4369
      4362      4365      4368      4370      4362      4365      4368      4371
      4363      4362      4365      4366      4363      4362      4365      4367
      4363      4362      4365      4368      4364      4362      4365      4366
      4364      4362      4365      4367      4364      4362      4365      4368
      4365      4368      4371      4372      4365      4368      4371      4373
      4365      4368      4371      4374      4366      4365      4368      4369
      4366      4365      4368      4370      4366      4365      4368      4371
      4367      4365      4368      4369      4367      4365      4368      4370
      4367      4365      4368      4371      4368      4371      4374      4375
      4368      4371      4374      4376      4368      4371      4374      4377
      4369      4368      4371      4372      4369      4368      4371      4373
      4369      4368      4371      4374      4370      4368      4371      4372
      4370      4368      4371      4373      4370      4368      4371      4374
      4372      4371      4374      4375      4372      4371      4374      4376
      4372      4371      4374      4377      4373      4371      4374      4375
      4373      4371      4374      4376      4373      4371      4374      4377
      4378      4381      4384      4385      4378      4381      4384      4386
      4378      4381      4384      4387      4379      4378      4381      4382
      4379      4378      4381      4383      4379      4378      4381      4384
      4380      4378      4381      4382      4380      4378      4381      4383
      4380      4378      4381      4384      4381      4384      4387      4388
      4381      4384      4387      4389      4381      4384      4387      4390
      4382      4381      4384      4385      4382      4381      4384      4386
      4382      4381      4384      4387      4383      4381      4384      4385
      4383      4381      4384      4386      4383      4381      4384      4387
      4384      4387      4390      4391      4384      4387      4390      4392
      4384      4387      4390      4393      4385      4384      4387      4388
      4385      4384      4387      4389      4385      4384      4387      4390
      4386      4384      4387      4388      4386      4384      4387      4389
      4386      4384      4387      4390      4387      4390      4393      4394
      4387      4390      4393      4395      4387      4390      4393      4396
      4388      4387      4390      4391      4388      4387      4390      4392
      4388      4387      4390      4393      4389      4387      4390      4391
      4389      4387      4390      4392      4389      4387      4390      4393
      4390      4393      4396      4397      4390      4393      4396      4398
      4390      4393      4396      4399      4391      4390      4393      4394
      4391      4390      4393      4395      4391      4390      4393      4396
      4392      4390      4393      4394      4392      4390      4393      4395
      4392      4390      4393      4396      4393      4396      4399      4400
      4393      4396      4399      4401      4393      4396      4399      4402
      4394      4393      4396      4397      4394      4393      4396      4398
      4394      4393      4396      4399      4395      4393      4396      4397
      4395      4393      4396      4398      4395      4393      4396      4399
      4396      4399      4402      4403      4396      4399      4402      4404
      4396      4399      4402      4405      4397      4396      4399      4400
      4397      4396      4399      4401      4397      4396      4399      4402
      4398      4396      4399      4400      4398      4396      4399      4401
      4398      4396      4399      4402      4399      4402      4405      4406
      4399      4402      4405      4407      4399      4402      4405      4408
      4400      4399      4402      4403      4400      4399      4402      4404
      4400      4399      4402      4405      4401      4399      4402      4403
      4401      4399      4402      4404      4401      4399      4402      4405
      4402      4405      4408      4409      4402      4405      4408      4410
      4402      4405      4408      4411      4403      4402      4405      4406
      4403      4402      4405      4407      4403      4402      4405      4408
      4404      4402      4405      4406      4404      4402      4405      4407
      4404      4402      4405      4408      4405      4408      4411      4412
      4405      4408      4411      4413      4405      4408      4411      4414
      4406      4405      4408      4409      4406      4405      4408      4410
      4406      4405      4408      4411      4407      4405      4408      4409
      4407      4405      4408      4410      4407      4405      4408      4411
      4408      4411      4414      4415      4408      4411      4414      4416
      4408      4411      4414      4417      4409      4408      4411      4412
      4409      4408      4411      4413      4409      4408      4411      4414
      4410      4408      4411      4412      4410      4408      4411      4413
      4410      4408      4411      4414      4411      4414      4417      4418
      4411      4414      4417      4419      4411      4414      4417      4420
      4412      4411      4414      4415      4412      4411      4414      4416
      4412      4411      4414      4417      4413      4411      4414      4415
      4413      4411      4414      4416      4413      4411      4414      4417
      4414      4417      4420      4421      4414      4417      4420      4422
      4414      4417      4420      4423      4415      4414      4417      4418
      4415      4414      4417      4419      4415      4414      4417      4420
      4416      4414      4417      4418      4416      4414      4417      4419
      4416      4414      4417      4420      4417      4420      4423      4424
      4417      4420      4423      4425      4417      4420      4423      4426
      4418      4417      4420      4421      4418      4417      4420      4422
      4418      4417      4420      4423      4419      4417      4420      4421
      4419      4417      4420      4422      4419      4417      4420      4423
      4421      4420      4423      4424      4421      4420      4423      4425
      4421      4420      4423      4426      4422      4420      4423      4424
      4422      4420      4423      4425      4422      4420      4423      4426
      4427      4431      4434      4435      4427      4431      4434      4465
      4427      4473      4470      4465      4427      4473      4470      4471
      4427      4473      4470      4472      4428      4427      4429      4430
      4428      4427      4431      4432      4428      4427      4431      4433
      4428      4427      4431      4434      4428      4427      4473      4470
      4428      4427      4473      4474      4428      4427      4473      4475
      4429      4427      4431      4432      4429      4427      4431      4433
      4429      4427      4431      4434      4429      4427      4473      4470
      4429      4427      4473      4474      4429      4427      4473      4475
      4430      4429      4427      4431      4430      4429      4427      4473
      4431      4427      4473      4470      4431      4427      4473      4474
      4431      4427      4473      4475      4431      4434      4435      4436
      4431      4434      4435      4437      4431      4434      4465      4463
      4431      4434      4465      4466      4431      4434      4465      4470
      4432      4431      4427      4473      4432      4431      4434      4435
      4432      4431      4434      4465      4433      4431      4427      4473
      4433      4431      4434      4435      4433      4431      4434      4465
      4434      4431      4427      4473      4434      4435      4437      4438
      4434      4435      4437      4439      4434      4435      4437      4440
      4434      4465      4463      4440      4434      4465      4463      4460
      4434      4465      4463      4464      4434      4465      4466      4467
      4434      4465      4466      4468      4434      4465      4466      4469
      4434      4465      4470      4471      4434      4465      4470      4472
      4434      4465      4470      4473      4435      4434      4465      4463
      4435      4434      4465      4466      4435      4434      4465      4470
      4435      4437      4440      4441      4435      4437      4440      4442
      4435      4437      4440      4463      4436      4435      4434      4465
      4436      4435      4437      4438      4436      4435      4437      4439
      4436      4435      4437      4440      4437      4435      4434      4465
      4437      4440      4442      4443      4437      4440      4442      4444
      4437      4440      4442      4452      4437      4440      4463      4460
      4437      4440      4463      4464      4437      4440      4463      4465
      4438      4437      4440      4441      4438      4437      4440      4442
      4438      4437      4440      4463      4439      4437      4440      4441
      4439      4437      4440      4442      4439      4437      4440      4463
      4440      4442      4444      4445      4440      4442      4444      4446
      4440      4442      4444      4447      4440      4442      4452      4450
      4440      4442      4452      4453      4440      4442      4452      4457
      4440      4463      4460      4457      4440      4463      4460      4461
      4440      4463      4460      4462      4440      4463      4465      4466
      4440      4463      4465      4470      4441      4440      4442      4443
      4441      4440      4442      4444      4441      4440      4442      4452
      4441      4440      4463      4460      4441      4440      4463      4464
      4441      4440      4463      4465      4442      4440      4463      4460
      4442      4440      4463      4464      4442      4440      4463      4465
      4442      4444      4447      4448      4442      4444      4447      4449
      4442      4444      4447      4450      4442      4452      4450      4447
      4442      4452      4450      4451      4442      4452      4450      4476
      4442      4452      4453      4454      4442      4452      4453      4455
      4442      4452      4453      4456      4442      4452      4457      4458
      4442      4452      4457      4459      4442      4452      4457      4460
      4443      4442      4440      4463      4443      4442      4444      4445
      4443      4442      4444      4446      4443      4442      4444      4447
      4443      4442      4452      4450      4443      4442      4452      4453
      4443      4442      4452      4457      4444      4442      4440      4463
      4444      4442      4452      4450      4444      4442      4452      4453
      4444      4442      4452      4457      4444      4447      4450      4451
      4444      4447      4450      4452      4444      4447      4450      4476
      4445      4444      4442      4452      4445      4444      4447      4448
      4445      4444      4447      4449      4445      4444      4447      4450
      4446      4444      4442      4452      4446      4444      4447      4448
      4446      4444      4447      4449      4446      4444      4447      4450
      4447      4444      4442      4452      4447      4450      4452      4453
      4447      4450      4452      4457      4447      4450      4476      4477
      4447      4450      4476      4478      4447      4450      4476      4482
      4448      4447      4450      4451      4448      4447      4450      4452
      4448      4447      4450      4476      4449      4447      4450      4451
      4449      4447      4450      4452      4449      4447      4450      4476
      4450      4452      4453      4454      4450      4452      4453      4455
      4450      4452      4453      4456      4450      4452      4457      4458
      4450      4452      4457      4459      4450      4452      4457      4460
      4450      4476      4478      4479      4450      4476      4478      4480
      4450      4476      4478      4481      4450      4476      4482      4483
      4450      4476      4482      4484      4450      4476      4482      4485
      4451      4450      4452      4453      4451      4450      4452      4457
      4451      4450      4476      4477      4451      4450      4476      4478
      4451      4450      4476      4482      4452      4442      4440      4463
      4452      4450      4476      4477      4452      4450      4476      4478
      4452      4450      4476      4482      4452      4457      4460      4461
      4452      4457      4460      4462      4452      4457      4460      4463
      4453      4452      4450      4476      4453      4452      4457      4458
      4453      4452      4457      4459      4453      4452      4457      4460
      4454      4453      4452      4457      4455      4453      4452      4457
      4456      4453      4452      4457      4457      4452      4450      4476
      4457      4460      4463      4464      4457      4460      4463      4465
      4458      4457      4460      4461      4458      4457      4460      4462
      4458      4457      4460      4463      4459      4457      4460      4461
      4459      4457      4460      4462      4459      4457      4460      4463
      4460      4463      4465      4466      4460      4463      4465      4470
      4461      4460      4463      4464      4461      4460      4463      4465
      4462      4460      4463      4464      4462      4460      4463      4465
      4463      4465      4466      4467      4463      4465      4466      4468
      4463      4465      4466      4469      4463      4465      4470      4471
      4463      4465      4470      4472      4463      4465      4470      4473
      4464      4463      4465      4466      4464      4463      4465      4470
      4465      4470      4473      4474      4465      4470      4473      4475
      4466      4465      4470      4471      4466      4465      4470      4472
      4466      4465      4470      4473      4467      4466      4465      4470
      4468      4466      4465      4470      4469      4466      4465      4470
      4471      4470      4473      4474      4471      4470      4473      4475
      4472      4470      4473      4474      4472      4470      4473      4475
      4476      4482      4485      4486      4476      4482      4485      4487
      4476      4482      4485      4488      4477      4476      4478      4479
      4477      4476      4478      4480      4477      4476      4478      4481
      4477      4476      4482      4483      4477      4476      4482      4484
      4477      4476      4482      4485      4478      4476      4482      4483
      4478      4476      4482      4484      4478      4476      4482      4485
      4479      4478      4476      4482      4480      4478      4476      4482
      4481      4478      4476      4482      4482      4485      4488      4489
      4482      4485      4488      4490      4482      4485      4488      4491
      4483      4482      4485      4486      4483      4482      4485      4487
      4483      4482      4485      4488      4484      4482      4485      4486
      4484      4482      4485      4487      4484      4482      4485      4488
      4485      4488      4491      4492      4485      4488      4491      4493
      4485      4488      4491      4497      4486      4485      4488      4489
      4486      4485      4488      4490      4486      4485      4488      4491
      4487      4485      4488      4489      4487      4485      4488      4490
      4487      4485      4488      4491      4488      4491      4493      4494
      4488      4491      4493      4495      4488      4491      4493      4496
      4488      4491      4497      4498      4488      4491      4497      4499
      4488      4491      4497      4500      4489      4488      4491      4492
      4489      4488      4491      4493      4489      4488      4491      4497
      4490      4488      4491      4492      4490      4488      4491      4493
      4490      4488      4491      4497      4492      4491      4493      4494
      4492      4491      4493      4495      4492      4491      4493      4496
      4492      4491      4497      4498      4492      4491      4497      4499
      4492      4491      4497      4500      4493      4491      4497      4498
      4493      4491      4497      4499      4493      4491      4497      4500
      4494      4493      4491      4497      4495      4493      4491      4497
      4496      4493      4491      4497      4501      4505      4508      4509
      4501      4505      4508      4539      4501      4547      4544      4539
      4501      4547      4544      4545      4501      4547      4544      4546
      4502      4501      4503      4504      4502      4501      4505      4506
      4502      4501      4505      4507      4502      4501      4505      4508
      4502      4501      4547      4544      4502      4501      4547      4548
      4502      4501      4547      4549      4503      4501      4505      4506
      4503      4501      4505      4507      4503      4501      4505      4508
      4503      4501      4547      4544      4503      4501      4547      4548
      4503      4501      4547      4549      4504      4503      4501      4505
      4504      4503      4501      4547      4505      4501      4547      4544
      4505      4501      4547      4548      4505      4501      4547      4549
      4505      4508      4509      4510      4505      4508      4509      4511
      4505      4508      4539      4537      4505      4508      4539      4540
      4505      4508      4539      4544      4506      4505      4501      4547
      4506      4505      4508      4509      4506      4505      4508      4539
      4507      4505      4501      4547      4507      4505      4508      4509
      4507      4505      4508      4539      4508      4505      4501      4547
      4508      4509      4511      4512      4508      4509      4511      4513
      4508      4509      4511      4514      4508      4539      4537      4514
      4508      4539      4537      4534      4508      4539      4537      4538
      4508      4539      4540      4541      4508      4539      4540      4542
      4508      4539      4540      4543      4508      4539      4544      4545
      4508      4539      4544      4546      4508      4539      4544      4547
      4509      4508      4539      4537      4509      4508      4539      4540
      4509      4508      4539      4544      4509      4511      4514      4515
      4509      4511      4514      4516      4509      4511      4514      4537
      4510      4509      4508      4539      4510      4509      4511      4512
      4510      4509      4511      4513      4510      4509      4511      4514
      4511      4509      4508      4539      4511      4514      4516      4517
      4511      4514      4516      4518      4511      4514      4516      4526
      4511      4514      4537      4534      4511      4514      4537      4538
      4511      4514      4537      4539      4512      4511      4514      4515
      4512      4511      4514      4516      4512      4511      4514      4537
      4513      4511      4514      4515      4513      4511      4514      4516
      4513      4511      4514      4537      4514      4516      4518      4519
      4514      4516      4518      4520      4514      4516      4518      4521
      4514      4516      4526      4524      4514      4516      4526      4527
      4514      4516      4526      4531      4514      4537      4534      4531
      4514      4537      4534      4535      4514      4537      4534      4536
      4514      4537      4539      4540      4514      4537      4539      4544
      4515      4514      4516      4517      4515      4514      4516      4518
      4515      4514      4516      4526      4515      4514      4537      4534
      4515      4514      4537      4538      4515      4514      4537      4539
      4516      4514      4537      4534      4516      4514      4537      4538
      4516      4514      4537      4539      4516      4518      4521      4522
      4516      4518      4521      4523      4516      4518      4521      4524
      4516      4526      4524      4521      4516      4526      4524      4525
      4516      4526      4524      4550      4516      4526      4527      4528
      4516      4526      4527      4529      4516      4526      4527      4530
      4516      4526      4531      4532      4516      4526      4531      4533
      4516      4526      4531      4534      4517      4516      4514      4537
      4517      4516      4518      4519      4517      4516      4518      4520
      4517      4516      4518      4521      4517      4516      4526      4524
      4517      4516      4526      4527      4517      4516      4526      4531
      4518      4516      4514      4537      4518      4516      4526      4524
      4518      4516      4526      4527      4518      4516      4526      4531
      4518      4521      4524      4525      4518      4521      4524      4526
      4518      4521      4524      4550      4519      4518      4516      4526
      4519      4518      4521      4522      4519      4518      4521      4523
      4519      4518      4521      4524      4520      4518      4516      4526
      4520      4518      4521      4522      4520      4518      4521      4523
      4520      4518      4521      4524      4521      4518      4516      4526
      4521      4524      4526      4527      4521      4524      4526      4531
      4521      4524      4550      4551      4521      4524      4550      4552
      4521      4524      4550      4556      4522      4521      4524      4525
      4522      4521      4524      4526      4522      4521      4524      4550
      4523      4521      4524      4525      4523      4521      4524      4526
      4523      4521      4524      4550      4524      4526      4527      4528
      4524      4526      4527      4529      4524      4526      4527      4530
      4524      4526      4531      4532      4524      4526      4531      4533
      4524      4526      4531      4534      4524      4550      4552      4553
      4524      4550      4552      4554      4524      4550      4552      4555
      4524      4550      4556      4557      4524      4550      4556      4558
      4524      4550      4556      4559      4525      4524      4526      4527
      4525      4524      4526      4531      4525      4524      4550      4551
      4525      4524      4550      4552      4525      4524      4550      4556
      4526      4516      4514      4537      4526      4524      4550      4551
      4526      4524      4550      4552      4526      4524      4550      4556
      4526      4531      4534      4535      4526      4531      4534      4536
      4526      4531      4534      4537      4527      4526      4524      4550
      4527      4526      4531      4532      4527      4526      4531      4533
      4527      4526      4531      4534      4528      4527      4526      4531
      4529      4527      4526      4531      4530      4527      4526      4531
      4531      4526      4524      4550      4531      4534      4537      4538
      4531      4534      4537      4539      4532      4531      4534      4535
      4532      4531      4534      4536      4532      4531      4534      4537
      4533      4531      4534      4535      4533      4531      4534      4536
      4533      4531      4534      4537      4534      4537      4539      4540
      4534      4537      4539      4544      4535      4534      4537      4538
      4535      4534      4537      4539      4536      4534      4537      4538
      4536      4534      4537      4539      4537      4539      4540      4541
      4537      4539      4540      4542      4537      4539      4540      4543
      4537      4539      4544      4545      4537      4539      4544      4546
      4537      4539      4544      4547      4538      4537      4539      4540
      4538      4537      4539      4544      4539      4544      4547      4548
      4539      4544      4547      4549      4540      4539      4544      4545
      4540      4539      4544      4546      4540      4539      4544      4547
      4541      4540      4539      4544      4542      4540      4539      4544
      4543      4540      4539      4544      4545      4544      4547      4548
      4545      4544      4547      4549      4546      4544      4547      4548
      4546      4544      4547      4549      4550      4556      4559      4560
      4550      4556      4559      4561      4550      4556      4559      4562
      4551      4550      4552      4553      4551      4550      4552      4554
      4551      4550      4552      4555      4551      4550      4556      4557
      4551      4550      4556      4558      4551      4550      4556      4559
      4552      4550      4556      4557      4552      4550      4556      4558
      4552      4550      4556      4559      4553      4552      4550      4556
      4554      4552      4550      4556      4555      4552      4550      4556
      4556      4559      4562      4563      4556      4559      4562      4564
      4556      4559      4562      4565      4557      4556      4559      4560
      4557      4556      4559      4561      4557      4556      4559      4562
      4558      4556      4559      4560      4558      4556      4559      4561
      4558      4556      4559      4562      4559      4562      4565      4566
      4559      4562      4565      4567      4559      4562      4565      4571
      4560      4559      4562      4563      4560      4559      4562      4564
      4560      4559      4562      4565      4561      4559      4562      4563
      4561      4559      4562      4564      4561      4559      4562      4565
      4562      4565      4567      4568      4562      4565      4567      4569
      4562      4565      4567      4570      4562      4565      4571      4572
      4562      4565      4571      4573      4562      4565      4571      4574
      4563      4562      4565      4566      4563      4562      4565      4567
      4563      4562      4565      4571      4564      4562      4565      4566
      4564      4562      4565      4567      4564      4562      4565      4571
      4566      4565      4567      4568      4566      4565      4567      4569
      4566      4565      4567      4570      4566      4565      4571      4572
      4566      4565      4571      4573      4566      4565      4571      4574
      4567      4565      4571      4572      4567      4565      4571      4573
      4567      4565      4571      4574      4568      4567      4565      4571
      4569      4567      4565      4571      4570      4567      4565      4571
      4575      4579      4582      4583      4575      4579      4582      4584
      4575      4579      4582      4588      4576      4575      4579      4580
      4576      4575      4579      4581      4576      4575      4579      4582
      4577      4575      4579      4580      4577      4575      4579      4581
      4577      4575      4579      4582      4578      4575      4579      4580
      4578      4575      4579      4581      4578      4575      4579      4582
      4579      4582      4588      4585      4580      4579      4582      4583
      4580      4579      4582      4584      4580      4579      4582      4588
      4581      4579      4582      4583      4581      4579      4582      4584
      4581      4579      4582      4588      4582      4588      4585      4586
      4582      4588      4585      4587      4582      4588      4585      4589
      4583      4582      4588      4585      4584      4582      4588      4585
      4585      4589      4590      4591      4585      4589      4590      4592
      4585      4589      4590      4593      4586      4585      4589      4590
      4587      4585      4589      4590      4588      4585      4589      4590
      4589      4590      4593      4594      4589      4590      4593      4595
      4589      4590      4593      4601      4590      4593      4595      4596
      4590      4593      4601      4602      4590      4593      4601      4603
      4590      4593      4601      4604      4591      4590      4593      4594
      4591      4590      4593      4595      4591      4590      4593      4601
      4592      4590      4593      4594      4592      4590      4593      4595
      4592      4590      4593      4601      4593      4595      4596      4597
      4593      4595      4596      4598      4593      4601      4604      4605
      4594      4593      4595      4596      4594      4593      4601      4602
      4594      4593      4601      4603      4594      4593      4601      4604
      4595      4593      4601      4602      4595      4593      4601      4603
      4595      4593      4601      4604      4595      4596      4598      4599
      4595      4596      4598      4600      4595      4596      4598      4610
      4596      4595      4593      4601      4596      4598      4610      4611
      4596      4598      4610      4612      4596      4598      4610      4613
      4597      4596      4598      4599      4597      4596      4598      4600
      4597      4596      4598      4610      4598      4610      4613      4614
      4598      4610      4613      4615      4598      4610      4613      4616
      4599      4598      4610      4611      4599      4598      4610      4612
      4599      4598      4610      4613      4600      4598      4610      4611
      4600      4598      4610      4612      4600      4598      4610      4613
      4601      4604      4605      4606      4601      4604      4605      4607
      4602      4601      4604      4605      4603      4601      4604      4605
      4604      4605      4607      4608      4604      4605      4607      4609
      4604      4605      4607      4657      4605      4607      4657      4658
      4605      4607      4657      4659      4605      4607      4657      4660
      4606      4605      4607      4608      4606      4605      4607      4609
      4606      4605      4607      4657      4607      4657      4660      4661
      4607      4657      4660      4662      4607      4657      4660      4663
      4608      4607      4657      4658      4608      4607      4657      4659
      4608      4607      4657      4660      4609      4607      4657      4658
      4609      4607      4657      4659      4609      4607      4657      4660
      4610      4613      4616      4617      4610      4613      4616      4618
      4610      4613      4616      4619      4611      4610      4613      4614
      4611      4610      4613      4615      4611      4610      4613      4616
      4612      4610      4613      4614      4612      4610      4613      4615
      4612      4610      4613      4616      4613      4616      4619      4620
      4613      4616      4619      4621      4613      4616      4619      4622
      4614      4613      4616      4617      4614      4613      4616      4618
      4614      4613      4616      4619      4615      4613      4616      4617
      4615      4613      4616      4618      4615      4613      4616      4619
      4616      4619      4622      4623      4616      4619      4622      4624
      4616      4619      4622      4625      4617      4616      4619      4620
      4617      4616      4619      4621      4617      4616      4619      4622
      4618      4616      4619      4620      4618      4616      4619      4621
      4618      4616      4619      4622      4619      4622      4625      4626
      4619      4622      4625      4627      4619      4622      4625      4628
      4620      4619      4622      4623      4620      4619      4622      4624
      4620      4619      4622      4625      4621      4619      4622      4623
      4621      4619      4622      4624      4621      4619      4622      4625
      4622      4625      4628      4629      4622      4625      4628      4630
      4623      4622      4625      4626      4623      4622      4625      4627
      4623      4622      4625      4628      4624      4622      4625      4626
      4624      4622      4625      4627      4624      4622      4625      4628
      4625      4628      4630      4631      4625      4628      4630      4632
      4626      4625      4628      4629      4626      4625      4628      4630
      4627      4625      4628      4629      4627      4625      4628      4630
      4628      4630      4632      4633      4628      4630      4632      4634
      4628      4630      4632      4635      4629      4628      4630      4631
      4629      4628      4630      4632      4630      4632      4635      4636
      4630      4632      4635      4637      4630      4632      4635      4638
      4631      4630      4632      4633      4631      4630      4632      4634
      4631      4630      4632      4635      4632      4635      4638      4639
      4632      4635      4638      4640      4632      4635      4638      4641
      4633      4632      4635      4636      4633      4632      4635      4637
      4633      4632      4635      4638      4634      4632      4635      4636
      4634      4632      4635      4637      4634      4632      4635      4638
      4635      4638      4641      4642      4635      4638      4641      4643
      4635      4638      4641      4644      4636      4635      4638      4639
      4636      4635      4638      4640      4636      4635      4638      4641
      4637      4635      4638      4639      4637      4635      4638      4640
      4637      4635      4638      4641      4638      4641      4644      4645
      4638      4641      4644      4646      4638      4641      4644      4647
      4639      4638      4641      4642      4639      4638      4641      4643
      4639      4638      4641      4644      4640      4638      4641      4642
      4640      4638      4641      4643      4640      4638      4641      4644
      4641      4644      4647      4648      4641      4644      4647      4649
      4641      4644      4647      4650      4642      4641      4644      4645
      4642      4641      4644      4646      4642      4641      4644      4647
      4643      4641      4644      4645      4643      4641      4644      4646
      4643      4641      4644      4647      4644      4647      4650      4651
      4644      4647      4650      4652      4644      4647      4650      4653
      4645      4644      4647      4648      4645      4644      4647      4649
      4645      4644      4647      4650      4646      4644      4647      4648
      4646      4644      4647      4649      4646      4644      4647      4650
      4647      4650      4653      4654      4647      4650      4653      4655
      4647      4650      4653      4656      4648      4647      4650      4651
      4648      4647      4650      4652      4648      4647      4650      4653
      4649      4647      4650      4651      4649      4647      4650      4652
      4649      4647      4650      4653      4651      4650      4653      4654
      4651      4650      4653      4655      4651      4650      4653      4656
      4652      4650      4653      4654      4652      4650      4653      4655
      4652      4650      4653      4656      4657      4660      4663      4664
      4657      4660      4663      4665      4657      4660      4663      4666
      4658      4657      4660      4661      4658      4657      4660      4662
      4658      4657      4660      4663      4659      4657      4660      4661
      4659      4657      4660      4662      4659      4657      4660      4663
      4660      4663      4666      4667      4660      4663      4666      4668
      4660      4663      4666      4669      4661      4660      4663      4664
      4661      4660      4663      4665      4661      4660      4663      4666
      4662      4660      4663      4664      4662      4660      4663      4665
      4662      4660      4663      4666      4663      4666      4669      4670
      4663      4666      4669      4671      4663      4666      4669      4672
      4664      4663      4666      4667      4664      4663      4666      4668
      4664      4663      4666      4669      4665      4663      4666      4667
      4665      4663      4666      4668      4665      4663      4666      4669
      4666      4669      4672      4673      4666      4669      4672      4674
      4666      4669      4672      4675      4667      4666      4669      4670
      4667      4666      4669      4671      4667      4666      4669      4672
      4668      4666      4669      4670      4668      4666      4669      4671
      4668      4666      4669      4672      4669      4672      4675      4676
      4669      4672      4675      4677      4669      4672      4675      4678
      4670      4669      4672      4673      4670      4669      4672      4674
      4670      4669      4672      4675      4671      4669      4672      4673
      4671      4669      4672      4674      4671      4669      4672      4675
      4672      4675      4678      4679      4672      4675      4678      4680
      4672      4675      4678      4681      4673      4672      4675      4676
      4673      4672      4675      4677      4673      4672      4675      4678
      4674      4672      4675      4676      4674      4672      4675      4677
      4674      4672      4675      4678      4675      4678      4681      4682
      4675      4678      4681      4683      4675      4678      4681      4684
      4676      4675      4678      4679      4676      4675      4678      4680
      4676      4675      4678      4681      4677      4675      4678      4679
      4677      4675      4678      4680      4677      4675      4678      4681
      4678      4681      4684      4685      4678      4681      4684      4686
      4678      4681      4684      4687      4679      4678      4681      4682
      4679      4678      4681      4683      4679      4678      4681      4684
      4680      4678      4681      4682      4680      4678      4681      4683
      4680      4678      4681      4684      4681      4684      4687      4688
      4681      4684      4687      4689      4681      4684      4687      4690
      4682      4681      4684      4685      4682      4681      4684      4686
      4682      4681      4684      4687      4683      4681      4684      4685
      4683      4681      4684      4686      4683      4681      4684      4687
      4684      4687      4690      4691      4684      4687      4690      4692
      4684      4687      4690      4693      4685      4684      4687      4688
      4685      4684      4687      4689      4685      4684      4687      4690
      4686      4684      4687      4688      4686      4684      4687      4689
      4686      4684      4687      4690      4687      4690      4693      4694
      4687      4690      4693      4695      4687      4690      4693      4696
      4688      4687      4690      4691      4688      4687      4690      4692
      4688      4687      4690      4693      4689      4687      4690      4691
      4689      4687      4690      4692      4689      4687      4690      4693
      4690      4693      4696      4697      4690      4693      4696      4698
      4690      4693      4696      4699      4691      4690      4693      4694
      4691      4690      4693      4695      4691      4690      4693      4696
      4692      4690      4693      4694      4692      4690      4693      4695
      4692      4690      4693      4696      4693      4696      4699      4700
      4693      4696      4699      4701      4693      4696      4699      4702
      4694      4693      4696      4697      4694      4693      4696      4698
      4694      4693      4696      4699      4695      4693      4696      4697
      4695      4693      4696      4698      4695      4693      4696      4699
      4696      4699      4702      4703      4696      4699      4702      4704
      4696      4699      4702      4705      4697      4696      4699      4700
      4697      4696      4699      4701      4697      4696      4699      4702
      4698      4696      4699      4700      4698      4696      4699      4701
      4698      4696      4699      4702      4700      4699      4702      4703
      4700      4699      4702      4704      4700      4699      4702      4705
      4701      4699      4702      4703      4701      4699      4702      4704
      4701      4699      4702      4705      4706      4719      4722      4723
      4706      4719      4722      4724      4706      4719      4722      4728
      4707      4706      4711      4712      4707      4706      4711      4713
      4707      4706      4711      4714      4707      4706      4715      4716
      4707      4706      4715      4717      4707      4706      4715      4718
      4707      4706      4719      4720      4707      4706      4719      4721
      4707      4706      4719      4722      4708      4707      4706      4711
      4708      4707      4706      4715      4708      4707      4706      4719
      4709      4707      4706      4711      4709      4707      4706      4715
      4709      4707      4706      4719      4710      4707      4706      4711
      4710      4707      4706      4715      4710      4707      4706      4719
      4711      4706      4715      4716      4711      4706      4715      4717
      4711      4706      4715      4718      4711      4706      4719      4720
      4711      4706      4719      4721      4711      4706      4719      4722
      4712      4711      4706      4715      4712      4711      4706      4719
      4713      4711      4706      4715      4713      4711      4706      4719
      4714      4711      4706      4715      4714      4711      4706      4719
      4715      4706      4719      4720      4715      4706      4719      4721
      4715      4706      4719      4722      4716      4715      4706      4719
      4717      4715      4706      4719      4718      4715      4706      4719
      4719      4722      4728      4725      4720      4719      4722      4723
      4720      4719      4722      4724      4720      4719      4722      4728
      4721      4719      4722      4723      4721      4719      4722      4724
      4721      4719      4722      4728      4722      4728      4725      4726
      4722      4728      4725      4727      4722      4728      4725      4729
      4723      4722      4728      4725      4724      4722      4728      4725
      4725      4729      4730      4731      4725      4729      4730      4732
      4725      4729      4730      4733      4726      4725      4729      4730
      4727      4725      4729      4730      4728      4725      4729      4730
      4729      4730      4733      4734      4729      4730      4733      4735
      4729      4730      4733      4741      4730      4733      4735      4736
      4730      4733      4741      4742      4730      4733      4741      4743
      4730      4733      4741      4744      4731      4730      4733      4734
      4731      4730      4733      4735      4731      4730      4733      4741
      4732      4730      4733      4734      4732      4730      4733      4735
      4732      4730      4733      4741      4733      4735      4736      4737
      4733      4735      4736      4738      4733      4741      4744      4745
      4734      4733      4735      4736      4734      4733      4741      4742
      4734      4733      4741      4743      4734      4733      4741      4744
      4735      4733      4741      4742      4735      4733      4741      4743
      4735      4733      4741      4744      4735      4736      4738      4739
      4735      4736      4738      4740      4735      4736      4738      4750
      4736      4735      4733      4741      4736      4738      4750      4751
      4736      4738      4750      4752      4736      4738      4750      4753
      4737      4736      4738      4739      4737      4736      4738      4740
      4737      4736      4738      4750      4738      4750      4753      4754
      4738      4750      4753      4755      4738      4750      4753      4756
      4739      4738      4750      4751      4739      4738      4750      4752
      4739      4738      4750      4753      4740      4738      4750      4751
      4740      4738      4750      4752      4740      4738      4750      4753
      4741      4744      4745      4746      4741      4744      4745      4747
      4742      4741      4744      4745      4743      4741      4744      4745
      4744      4745      4747      4748      4744      4745      4747      4749
      4744      4745      4747      4795      4745      4747      4795      4796
      4745      4747      4795      4797      4745      4747      4795      4798
      4746      4745      4747      4748      4746      4745      4747      4749
      4746      4745      4747      4795      4747      4795      4798      4799
      4747      4795      4798      4800      4747      4795      4798      4801
      4748      4747      4795      4796      4748      4747      4795      4797
      4748      4747      4795      4798      4749      4747      4795      4796
      4749      4747      4795      4797      4749      4747      4795      4798
      4750      4753      4756      4757      4750      4753      4756      4758
      4750      4753      4756      4759      4751      4750      4753      4754
      4751      4750      4753      4755      4751      4750      4753      4756
      4752      4750      4753      4754      4752      4750      4753      4755
      4752      4750      4753      4756      4753      4756      4759      4760
      4753      4756      4759      4761      4753      4756      4759      4762
      4754      4753      4756      4757      4754      4753      4756      4758
      4754      4753      4756      4759      4755      4753      4756      4757
      4755      4753      4756      4758      4755      4753      4756      4759
      4756      4759      4762      4763      4756      4759      4762      4764
      4756      4759      4762      4765      4757      4756      4759      4760
      4757      4756      4759      4761      4757      4756      4759      4762
      4758      4756      4759      4760      4758      4756      4759      4761
      4758      4756      4759      4762      4759      4762      4765      4766
      4759      4762      4765      4767      4759      4762      4765      4768
      4760      4759      4762      4763      4760      4759      4762      4764
      4760      4759      4762      4765      4761      4759      4762      4763
      4761      4759      4762      4764      4761      4759      4762      4765
      4762      4765      4768      4769      4762      4765      4768      4770
      4763      4762      4765      4766      4763      4762      4765      4767
      4763      4762      4765      4768      4764      4762      4765      4766
      4764      4762      4765      4767      4764      4762      4765      4768
      4765      4768      4770      4771      4765      4768      4770      4772
      4766      4765      4768      4769      4766      4765      4768      4770
      4767      4765      4768      4769      4767      4765      4768      4770
      4768      4770      4772      4773      4768      4770      4772      4774
      4768      4770      4772      4775      4769      4768      4770      4771
      4769      4768      4770      4772      4770      4772      4775      4776
      4770      4772      4775      4777      4771      4770      4772      4773
      4771      4770      4772      4774      4771      4770      4772      4775
      4772      4775      4777      4778      4772      4775      4777      4779
      4773      4772      4775      4776      4773      4772      4775      4777
      4774      4772      4775      4776      4774      4772      4775      4777
      4775      4777      4779      4780      4775      4777      4779      4781
      4775      4777      4779      4782      4776      4775      4777      4778
      4776      4775      4777      4779      4777      4779      4782      4783
      4777      4779      4782      4784      4777      4779      4782      4785
      4778      4777      4779      4780      4778      4777      4779      4781
      4778      4777      4779      4782      4779      4782      4785      4786
      4779      4782      4785      4787      4779      4782      4785      4788
      4780      4779      4782      4783      4780      4779      4782      4784
      4780      4779      4782      4785      4781      4779      4782      4783
      4781      4779      4782      4784      4781      4779      4782      4785
      4782      4785      4788      4789      4782      4785      4788      4790
      4782      4785      4788      4791      4783      4782      4785      4786
      4783      4782      4785      4787      4783      4782      4785      4788
      4784      4782      4785      4786      4784      4782      4785      4787
      4784      4782      4785      4788      4785      4788      4791      4792
      4785      4788      4791      4793      4785      4788      4791      4794
      4786      4785      4788      4789      4786      4785      4788      4790
      4786      4785      4788      4791      4787      4785      4788      4789
      4787      4785      4788      4790      4787      4785      4788      4791
      4789      4788      4791      4792      4789      4788      4791      4793
      4789      4788      4791      4794      4790      4788      4791      4792
      4790      4788      4791      4793      4790      4788      4791      4794
      4795      4798      4801      4802      4795      4798      4801      4803
      4795      4798      4801      4804      4796      4795      4798      4799
      4796      4795      4798      4800      4796      4795      4798      4801
      4797      4795      4798      4799      4797      4795      4798      4800
      4797      4795      4798      4801      4798      4801      4804      4805
      4798      4801      4804      4806      4798      4801      4804      4807
      4799      4798      4801      4802      4799      4798      4801      4803
      4799      4798      4801      4804      4800      4798      4801      4802
      4800      4798      4801      4803      4800      4798      4801      4804
      4801      4804      4807      4808      4801      4804      4807      4809
      4801      4804      4807      4810      4802      4801      4804      4805
      4802      4801      4804      4806      4802      4801      4804      4807
      4803      4801      4804      4805      4803      4801      4804      4806
      4803      4801      4804      4807      4804      4807      4810      4811
      4804      4807      4810      4812      4804      4807      4810      4813
      4805      4804      4807      4808      4805      4804      4807      4809
      4805      4804      4807      4810      4806      4804      4807      4808
      4806      4804      4807      4809      4806      4804      4807      4810
      4807      4810      4813      4814      4807      4810      4813      4815
      4807      4810      4813      4816      4808      4807      4810      4811
      4808      4807      4810      4812      4808      4807      4810      4813
      4809      4807      4810      4811      4809      4807      4810      4812
      4809      4807      4810      4813      4810      4813      4816      4817
      4810      4813      4816      4818      4810      4813      4816      4819
      4811      4810      4813      4814      4811      4810      4813      4815
      4811      4810      4813      4816      4812      4810      4813      4814
      4812      4810      4813      4815      4812      4810      4813      4816
      4813      4816      4819      4820      4813      4816      4819      4821
      4813      4816      4819      4822      4814      4813      4816      4817
      4814      4813      4816      4818      4814      4813      4816      4819
      4815      4813      4816      4817      4815      4813      4816      4818
      4815      4813      4816      4819      4816      4819      4822      4823
      4816      4819      4822      4824      4816      4819      4822      4825
      4817      4816      4819      4820      4817      4816      4819      4821
      4817      4816      4819      4822      4818      4816      4819      4820
      4818      4816      4819      4821      4818      4816      4819      4822
      4819      4822      4825      4826      4819      4822      4825      4827
      4819      4822      4825      4828      4820      4819      4822      4823
      4820      4819      4822      4824      4820      4819      4822      4825
      4821      4819      4822      4823      4821      4819      4822      4824
      4821      4819      4822      4825      4822      4825      4828      4829
      4822      4825      4828      4830      4822      4825      4828      4831
      4823      4822      4825      4826      4823      4822      4825      4827
      4823      4822      4825      4828      4824      4822      4825      4826
      4824      4822      4825      4827      4824      4822      4825      4828
      4825      4828      4831      4832      4825      4828      4831      4833
      4825      4828      4831      4834      4826      4825      4828      4829
      4826      4825      4828      4830      4826      4825      4828      4831
      4827      4825      4828      4829      4827      4825      4828      4830
      4827      4825      4828      4831      4828      4831      4834      4835
      4828      4831      4834      4836      4828      4831      4834      4837
      4829      4828      4831      4832      4829      4828      4831      4833
      4829      4828      4831      4834      4830      4828      4831      4832
      4830      4828      4831      4833      4830      4828      4831      4834
      4831      4834      4837      4838      4831      4834      4837      4839
      4831      4834      4837      4840      4832      4831      4834      4835
      4832      4831      4834      4836      4832      4831      4834      4837
      4833      4831      4834      4835      4833      4831      4834      4836
      4833      4831      4834      4837      4834      4837      4840      4841
      4834      4837      4840      4842      4834      4837      4840      4843
      4835      4834      4837      4838      4835      4834      4837      4839
      4835      4834      4837      4840      4836      4834      4837      4838
      4836      4834      4837      4839      4836      4834      4837      4840
      4838      4837      4840      4841      4838      4837      4840      4842
      4838      4837      4840      4843      4839      4837      4840      4841
      4839      4837      4840      4842      4839      4837      4840      4843
      4844      4848      4851      4852      4844      4848      4851      4853
      4844      4848      4851      4857      4845      4844      4848      4849
      4845      4844      4848      4850      4845      4844      4848      4851
      4846      4844      4848      4849      4846      4844      4848      4850
      4846      4844      4848      4851      4847      4844      4848      4849
      4847      4844      4848      4850      4847      4844      4848      4851
      4848      4851      4857      4854      4849      4848      4851      4852
      4849      4848      4851      4853      4849      4848      4851      4857
      4850      4848      4851      4852      4850      4848      4851      4853
      4850      4848      4851      4857      4851      4857      4854      4855
      4851      4857      4854      4856      4851      4857      4854      4858
      4852      4851      4857      4854      4853      4851      4857      4854
      4854      4858      4859      4860      4854      4858      4859      4861
      4854      4858      4859      4862      4855      4854      4858      4859
      4856      4854      4858      4859      4857      4854      4858      4859
      4858      4859      4862      4863      4858      4859      4862      4864
      4858      4859      4862      4870      4859      4862      4864      4865
      4859      4862      4870      4871      4859      4862      4870      4872
      4859      4862      4870      4873      4860      4859      4862      4863
      4860      4859      4862      4864      4860      4859      4862      4870
      4861      4859      4862      4863      4861      4859      4862      4864
      4861      4859      4862      4870      4862      4864      4865      4866
      4862      4864      4865      4867      4862      4870      4873      4874
      4863      4862      4864      4865      4863      4862      4870      4871
      4863      4862      4870      4872      4863      4862      4870      4873
      4864      4862      4870      4871      4864      4862      4870      4872
      4864      4862      4870      4873      4864      4865      4867      4868
      4864      4865      4867      4869      4864      4865      4867      4879
      4865      4864      4862      4870      4865      4867      4879      4880
      4865      4867      4879      4881      4865      4867      4879      4882
      4866      4865      4867      4868      4866      4865      4867      4869
      4866      4865      4867      4879      4867      4879      4882      4883
      4867      4879      4882      4884      4867      4879      4882      4885
      4868      4867      4879      4880      4868      4867      4879      4881
      4868      4867      4879      4882      4869      4867      4879      4880
      4869      4867      4879      4881      4869      4867      4879      4882
      4870      4873      4874      4875      4870      4873      4874      4876
      4871      4870      4873      4874      4872      4870      4873      4874
      4873      4874      4876      4877      4873      4874      4876      4878
      4873      4874      4876      4926      4874      4876      4926      4927
      4874      4876      4926      4928      4874      4876      4926      4929
      4875      4874      4876      4877      4875      4874      4876      4878
      4875      4874      4876      4926      4876      4926      4929      4930
      4876      4926      4929      4931      4876      4926      4929      4932
      4877      4876      4926      4927      4877      4876      4926      4928
      4877      4876      4926      4929      4878      4876      4926      4927
      4878      4876      4926      4928      4878      4876      4926      4929
      4879      4882      4885      4886      4879      4882      4885      4887
      4879      4882      4885      4888      4880      4879      4882      4883
      4880      4879      4882      4884      4880      4879      4882      4885
      4881      4879      4882      4883      4881      4879      4882      4884
      4881      4879      4882      4885      4882      4885      4888      4889
      4882      4885      4888      4890      4882      4885      4888      4891
      4883      4882      4885      4886      4883      4882      4885      4887
      4883      4882      4885      4888      4884      4882      4885      4886
      4884      4882      4885      4887      4884      4882      4885      4888
      4885      4888      4891      4892      4885      4888      4891      4893
      4885      4888      4891      4894      4886      4885      4888      4889
      4886      4885      4888      4890      4886      4885      4888      4891
      4887      4885      4888      4889      4887      4885      4888      4890
      4887      4885      4888      4891      4888      4891      4894      4895
      4888      4891      4894      4896      4888      4891      4894      4897
      4889      4888      4891      4892      4889      4888      4891      4893
      4889      4888      4891      4894      4890      4888      4891      4892
      4890      4888      4891      4893      4890      4888      4891      4894
      4891      4894      4897      4898      4891      4894      4897      4899
      4892      4891      4894      4895      4892      4891      4894      4896
      4892      4891      4894      4897      4893      4891      4894      4895
      4893      4891      4894      4896      4893      4891      4894      4897
      4894      4897      4899      4900      4894      4897      4899      4901
      4895      4894      4897      4898      4895      4894      4897      4899
      4896      4894      4897      4898      4896      4894      4897      4899
      4897      4899      4901      4902      4897      4899      4901      4903
      4897      4899      4901      4904      4898      4897      4899      4900
      4898      4897      4899      4901      4899      4901      4904      4905
      4899      4901      4904      4906      4899      4901      4904      4907
      4900      4899      4901      4902      4900      4899      4901      4903
      4900      4899      4901      4904      4901      4904      4907      4908
      4901      4904      4907      4909      4901      4904      4907      4910
      4902      4901      4904      4905      4902      4901      4904      4906
      4902      4901      4904      4907      4903      4901      4904      4905
      4903      4901      4904      4906      4903      4901      4904      4907
      4904      4907      4910      4911      4904      4907      4910      4912
      4904      4907      4910      4913      4905      4904      4907      4908
      4905      4904      4907      4909      4905      4904      4907      4910
      4906      4904      4907      4908      4906      4904      4907      4909
      4906      4904      4907      4910      4907      4910      4913      4914
      4907      4910      4913      4915      4907      4910      4913      4916
      4908      4907      4910      4911      4908      4907      4910      4912
      4908      4907      4910      4913      4909      4907      4910      4911
      4909      4907      4910      4912      4909      4907      4910      4913
      4910      4913      4916      4917      4910      4913      4916      4918
      4910      4913      4916      4919      4911      4910      4913      4914
      4911      4910      4913      4915      4911      4910      4913      4916
      4912      4910      4913      4914      4912      4910      4913      4915
      4912      4910      4913      4916      4913      4916      4919      4920
      4913      4916      4919      4921      4913      4916      4919      4922
      4914      4913      4916      4917      4914      4913      4916      4918
      4914      4913      4916      4919      4915      4913      4916      4917
      4915      4913      4916      4918      4915      4913      4916      4919
      4916      4919      4922      4923      4916      4919      4922      4924
      4916      4919      4922      4925      4917      4916      4919      4920
      4917      4916      4919      4921      4917      4916      4919      4922
      4918      4916      4919      4920      4918      4916      4919      4921
      4918      4916      4919      4922      4920      4919      4922      4923
      4920      4919      4922      4924      4920      4919      4922      4925
      4921      4919      4922      4923      4921      4919      4922      4924
      4921      4919      4922      4925      4926      4929      4932      4933
      4926      4929      4932      4934      4926      4929      4932      4935
      4927      4926      4929      4930      4927      4926      4929      4931
      4927      4926      4929      4932      4928      4926      4929      4930
      4928      4926      4929      4931      4928      4926      4929      4932
      4929      4932      4935      4936      4929      4932      4935      4937
      4929      4932      4935      4938      4930      4929      4932      4933
      4930      4929      4932      4934      4930      4929      4932      4935
      4931      4929      4932      4933      4931      4929      4932      4934
      4931      4929      4932      4935      4932      4935      4938      4939
      4932      4935      4938      4940      4932      4935      4938      4941
      4933      4932      4935      4936      4933      4932      4935      4937
      4933      4932      4935      4938      4934      4932      4935      4936
      4934      4932      4935      4937      4934      4932      4935      4938
      4935      4938      4941      4942      4935      4938      4941      4943
      4935      4938      4941      4944      4936      4935      4938      4939
      4936      4935      4938      4940      4936      4935      4938      4941
      4937      4935      4938      4939      4937      4935      4938      4940
      4937      4935      4938      4941      4938      4941      4944      4945
      4938      4941      4944      4946      4938      4941      4944      4947
      4939      4938      4941      4942      4939      4938      4941      4943
      4939      4938      4941      4944      4940      4938      4941      4942
      4940      4938      4941      4943      4940      4938      4941      4944
      4941      4944      4947      4948      4941      4944      4947      4949
      4941      4944      4947      4950      4942      4941      4944      4945
      4942      4941      4944      4946      4942      4941      4944      4947
      4943      4941      4944      4945      4943      4941      4944      4946
      4943      4941      4944      4947      4944      4947      4950      4951
      4944      4947      4950      4952      4944      4947      4950      4953
      4945      4944      4947      4948      4945      4944      4947      4949
      4945      4944      4947      4950      4946      4944      4947      4948
      4946      4944      4947      4949      4946      4944      4947      4950
      4947      4950      4953      4954      4947      4950      4953      4955
      4947      4950      4953      4956      4948      4947      4950      4951
      4948      4947      4950      4952      4948      4947      4950      4953
      4949      4947      4950      4951      4949      4947      4950      4952
      4949      4947      4950      4953      4950      4953      4956      4957
      4950      4953      4956      4958      4950      4953      4956      4959
      4951      4950      4953      4954      4951      4950      4953      4955
      4951      4950      4953      4956      4952      4950      4953      4954
      4952      4950      4953      4955      4952      4950      4953      4956
      4953      4956      4959      4960      4953      4956      4959      4961
      4953      4956      4959      4962      4954      4953      4956      4957
      4954      4953      4956      4958      4954      4953      4956      4959
      4955      4953      4956      4957      4955      4953      4956      4958
      4955      4953      4956      4959      4956      4959      4962      4963
      4956      4959      4962      4964      4956      4959      4962      4965
      4957      4956      4959      4960      4957      4956      4959      4961
      4957      4956      4959      4962      4958      4956      4959      4960
      4958      4956      4959      4961      4958      4956      4959      4962
      4959      4962      4965      4966      4959      4962      4965      4967
      4959      4962      4965      4968      4960      4959      4962      4963
      4960      4959      4962      4964      4960      4959      4962      4965
      4961      4959      4962      4963      4961      4959      4962      4964
      4961      4959      4962      4965      4962      4965      4968      4969
      4962      4965      4968      4970      4962      4965      4968      4971
      4963      4962      4965      4966      4963      4962      4965      4967
      4963      4962      4965      4968      4964      4962      4965      4966
      4964      4962      4965      4967      4964      4962      4965      4968
      4965      4968      4971      4972      4965      4968      4971      4973
      4965      4968      4971      4974      4966      4965      4968      4969
      4966      4965      4968      4970      4966      4965      4968      4971
      4967      4965      4968      4969      4967      4965      4968      4970
      4967      4965      4968      4971      4969      4968      4971      4972
      4969      4968      4971      4973      4969      4968      4971      4974
      4970      4968      4971      4972      4970      4968      4971      4973
      4970      4968      4971      4974      4975      4976      4991      4992
      4975      4976      4991      4993      4975      4976      4991      4997
      4976      4975      4979      4980      4976      4975      4979      4981
      4976      4975      4979      4982      4976      4975      4983      4984
      4976      4975      4983      4985      4976      4975      4983      4986
      4976      4975      4987      4988      4976      4975      4987      4989
      4976      4975      4987      4990      4976      4991      4997      4994
      4977      4976      4975      4979      4977      4976      4975      4983
      4977      4976      4975      4987      4977      4976      4991      4992
      4977      4976      4991      4993      4977      4976      4991      4997
      4978      4976      4975      4979      4978      4976      4975      4983
      4978      4976      4975      4987      4978      4976      4991      4992
      4978      4976      4991      4993      4978      4976      4991      4997
      4979      4975      4976      4991      4979      4975      4983      4984
      4979      4975      4983      4985      4979      4975      4983      4986
      4979      4975      4987      4988      4979      4975      4987      4989
      4979      4975      4987      4990      4980      4979      4975      4983
      4980      4979      4975      4987      4981      4979      4975      4983
      4981      4979      4975      4987      4982      4979      4975      4983
      4982      4979      4975      4987      4983      4975      4976      4991
      4983      4975      4987      4988      4983      4975      4987      4989
      4983      4975      4987      4990      4984      4983      4975      4987
      4985      4983      4975      4987      4986      4983      4975      4987
      4987      4975      4976      4991      4991      4997      4994      4995
      4991      4997      4994      4996      4991      4997      4994      4998
      4992      4991      4997      4994      4993      4991      4997      4994
      4994      4998      4999      5000      4994      4998      4999      5001
      4994      4998      4999      5002      4995      4994      4998      4999
      4996      4994      4998      4999      4997      4994      4998      4999
      4998      4999      5002      5003      4998      4999      5002      5004
      4998      4999      5002      5010      4999      5002      5004      5005
      4999      5002      5010      5011      4999      5002      5010      5012
      4999      5002      5010      5013      5000      4999      5002      5003
      5000      4999      5002      5004      5000      4999      5002      5010
      5001      4999      5002      5003      5001      4999      5002      5004
      5001      4999      5002      5010      5002      5004      5005      5006
      5002      5004      5005      5007      5002      5010      5013      5014
      5003      5002      5004      5005      5003      5002      5010      5011
      5003      5002      5010      5012      5003      5002      5010      5013
      5004      5002      5010      5011      5004      5002      5010      5012
      5004      5002      5010      5013      5004      5005      5007      5008
      5004      5005      5007      5009      5004      5005      5007      5019
      5005      5004      5002      5010      5005      5007      5019      5020
      5005      5007      5019      5021      5005      5007      5019      5022
      5006      5005      5007      5008      5006      5005      5007      5009
      5006      5005      5007      5019      5007      5019      5022      5023
      5007      5019      5022      5024      5007      5019      5022      5025
      5008      5007      5019      5020      5008      5007      5019      5021
      5008      5007      5019      5022      5009      5007      5019      5020
      5009      5007      5019      5021      5009      5007      5019      5022
      5010      5013      5014      5015      5010      5013      5014      5016
      5011      5010      5013      5014      5012      5010      5013      5014
      5013      5014      5016      5017      5013      5014      5016      5018
      5013      5014      5016      5066      5014      5016      5066      5067
      5014      5016      5066      5068      5014      5016      5066      5069
      5015      5014      5016      5017      5015      5014      5016      5018
      5015      5014      5016      5066      5016      5066      5069      5070
      5016      5066      5069      5071      5016      5066      5069      5072
      5017      5016      5066      5067      5017      5016      5066      5068
      5017      5016      5066      5069      5018      5016      5066      5067
      5018      5016      5066      5068      5018      5016      5066      5069
      5019      5022      5025      5026      5019      5022      5025      5027
      5019      5022      5025      5028      5020      5019      5022      5023
      5020      5019      5022      5024      5020      5019      5022      5025
      5021      5019      5022      5023      5021      5019      5022      5024
      5021      5019      5022      5025      5022      5025      5028      5029
      5022      5025      5028      5030      5022      5025      5028      5031
      5023      5022      5025      5026      5023      5022      5025      5027
      5023      5022      5025      5028      5024      5022      5025      5026
      5024      5022      5025      5027      5024      5022      5025      5028
      5025      5028      5031      5032      5025      5028      5031      5033
      5025      5028      5031      5034      5026      5025      5028      5029
      5026      5025      5028      5030      5026      5025      5028      5031
      5027      5025      5028      5029      5027      5025      5028      5030
      5027      5025      5028      5031      5028      5031      5034      5035
      5028      5031      5034      5036      5028      5031      5034      5037
      5029      5028      5031      5032      5029      5028      5031      5033
      5029      5028      5031      5034      5030      5028      5031      5032
      5030      5028      5031      5033      5030      5028      5031      5034
      5031      5034      5037      5038      5031      5034      5037      5039
      5032      5031      5034      5035      5032      5031      5034      5036
      5032      5031      5034      5037      5033      5031      5034      5035
      5033      5031      5034      5036      5033      5031      5034      5037
      5034      5037      5039      5040      5034      5037      5039      5041
      5035      5034      5037      5038      5035      5034      5037      5039
      5036      5034      5037      5038      5036      5034      5037      5039
      5037      5039      5041      5042      5037      5039      5041      5043
      5037      5039      5041      5044      5038      5037      5039      5040
      5038      5037      5039      5041      5039      5041      5044      5045
      5039      5041      5044      5046      5039      5041      5044      5047
      5040      5039      5041      5042      5040      5039      5041      5043
      5040      5039      5041      5044      5041      5044      5047      5048
      5041      5044      5047      5049      5041      5044      5047      5050
      5042      5041      5044      5045      5042      5041      5044      5046
      5042      5041      5044      5047      5043      5041      5044      5045
      5043      5041      5044      5046      5043      5041      5044      5047
      5044      5047      5050      5051      5044      5047      5050      5052
      5044      5047      5050      5053      5045      5044      5047      5048
      5045      5044      5047      5049      5045      5044      5047      5050
      5046      5044      5047      5048      5046      5044      5047      5049
      5046      5044      5047      5050      5047      5050      5053      5054
      5047      5050      5053      5055      5047      5050      5053      5056
      5048      5047      5050      5051      5048      5047      5050      5052
      5048      5047      5050      5053      5049      5047      5050      5051
      5049      5047      5050      5052      5049      5047      5050      5053
      5050      5053      5056      5057      5050      5053      5056      5058
      5050      5053      5056      5059      5051      5050      5053      5054
      5051      5050      5053      5055      5051      5050      5053      5056
      5052      5050      5053      5054      5052      5050      5053      5055
      5052      5050      5053      5056      5053      5056      5059      5060
      5053      5056      5059      5061      5053      5056      5059      5062
      5054      5053      5056      5057      5054      5053      5056      5058
      5054      5053      5056      5059      5055      5053      5056      5057
      5055      5053      5056      5058      5055      5053      5056      5059
      5056      5059      5062      5063      5056      5059      5062      5064
      5056      5059      5062      5065      5057      5056      5059      5060
      5057      5056      5059      5061      5057      5056      5059      5062
      5058      5056      5059      5060      5058      5056      5059      5061
      5058      5056      5059      5062      5060      5059      5062      5063
      5060      5059      5062      5064      5060      5059      5062      5065
      5061      5059      5062      5063      5061      5059      5062      5064
      5061      5059      5062      5065      5066      5069      5072      5073
      5066      5069      5072      5074      5066      5069      5072      5075
      5067      5066      5069      5070      5067      5066      5069      5071
      5067      5066      5069      5072      5068      5066      5069      5070
      5068      5066      5069      5071      5068      5066      5069      5072
      5069      5072      5075      5076      5069      5072      5075      5077
      5069      5072      5075      5078      5070      5069      5072      5073
      5070      5069      5072      5074      5070      5069      5072      5075
      5071      5069      5072      5073      5071      5069      5072      5074
      5071      5069      5072      5075      5072      5075      5078      5079
      5072      5075      5078      5080      5072      5075      5078      5081
      5073      5072      5075      5076      5073      5072      5075      5077
      5073      5072      5075      5078      5074      5072      5075      5076
      5074      5072      5075      5077      5074      5072      5075      5078
      5075      5078      5081      5082      5075      5078      5081      5083
      5075      5078      5081      5084      5076      5075      5078      5079
      5076      5075      5078      5080      5076      5075      5078      5081
      5077      5075      5078      5079      5077      5075      5078      5080
      5077      5075      5078      5081      5078      5081      5084      5085
      5078      5081      5084      5086      5078      5081      5084      5087
      5079      5078      5081      5082      5079      5078      5081      5083
      5079      5078      5081      5084      5080      5078      5081      5082
      5080      5078      5081      5083      5080      5078      5081      5084
      5081      5084      5087      5088      5081      5084      5087      5089
      5081      5084      5087      5090      5082      5081      5084      5085
      5082      5081      5084      5086      5082      5081      5084      5087
      5083      5081      5084      5085      5083      5081      5084      5086
      5083      5081      5084      5087      5084      5087      5090      5091
      5084      5087      5090      5092      5084      5087      5090      5093
      5085      5084      5087      5088      5085      5084      5087      5089
      5085      5084      5087      5090      5086      5084      5087      5088
      5086      5084      5087      5089      5086      5084      5087      5090
      5087      5090      5093      5094      5087      5090      5093      5095
      5087      5090      5093      5096      5088      5087      5090      5091
      5088      5087      5090      5092      5088      5087      5090      5093
      5089      5087      5090      5091      5089      5087      5090      5092
      5089      5087      5090      5093      5090      5093      5096      5097
      5090      5093      5096      5098      5090      5093      5096      5099
      5091      5090      5093      5094      5091      5090      5093      5095
      5091      5090      5093      5096      5092      5090      5093      5094
      5092      5090      5093      5095      5092      5090      5093      5096
      5093      5096      5099      5100      5093      5096      5099      5101
      5093      5096      5099      5102      5094      5093      5096      5097
      5094      5093      5096      5098      5094      5093      5096      5099
      5095      5093      5096      5097      5095      5093      5096      5098
      5095      5093      5096      5099      5096      5099      5102      5103
      5096      5099      5102      5104      5096      5099      5102      5105
      5097      5096      5099      5100      5097      5096      5099      5101
      5097      5096      5099      5102      5098      5096      5099      5100
      5098      5096      5099      5101      5098      5096      5099      5102
      5099      5102      5105      5106      5099      5102      5105      5107
      5099      5102      5105      5108      5100      5099      5102      5103
      5100      5099      5102      5104      5100      5099      5102      5105
      5101      5099      5102      5103      5101      5099      5102      5104
      5101      5099      5102      5105      5103      5102      5105      5106
      5103      5102      5105      5107      5103      5102      5105      5108
      5104      5102      5105      5106      5104      5102      5105      5107
      5104      5102      5105      5108      5109      5122      5125      5126
      5109      5122      5125      5127      5109      5122      5125      5132
      5110      5109      5114      5115      5110      5109      5114      5116
      5110      5109      5114      5117      5110      5109      5118      5119
      5110      5109      5118      5120      5110      5109      5118      5121
      5110      5109      5122      5123      5110      5109      5122      5124
      5110      5109      5122      5125      5111      5110      5109      5114
      5111      5110      5109      5118      5111      5110      5109      5122
      5112      5110      5109      5114      5112      5110      5109      5118
      5112      5110      5109      5122      5113      5110      5109      5114
      5113      5110      5109      5118      5113      5110      5109      5122
      5114      5109      5118      5119      5114      5109      5118      5120
      5114      5109      5118      5121      5114      5109      5122      5123
      5114      5109      5122      5124      5114      5109      5122      5125
      5115      5114      5109      5118      5115      5114      5109      5122
      5116      5114      5109      5118      5116      5114      5109      5122
      5117      5114      5109      5118      5117      5114      5109      5122
      5118      5109      5122      5123      5118      5109      5122      5124
      5118      5109      5122      5125      5119      5118      5109      5122
      5120      5118      5109      5122      5121      5118      5109      5122
      5122      5125      5132      5128      5123      5122      5125      5126
      5123      5122      5125      5127      5123      5122      5125      5132
      5124      5122      5125      5126      5124      5122      5125      5127
      5124      5122      5125      5132      5125      5132      5128      5129
      5125      5132      5128      5130      5125      5132      5128      5131
      5126      5125      5132      5128      5127      5125      5132      5128
      5128      5131      5133      5134      5128      5131      5133      5135
      5128      5131      5133      5138      5129      5128      5131      5133
      5130      5128      5131      5133      5131      5133      5138      5136
      5131      5133      5138      5139      5131      5133      5138      5140
      5132      5128      5131      5133      5133      5138      5136      5137
      5133      5138      5136      5188      5133      5138      5140      5141
      5133      5138      5140      5142      5133      5138      5140      5144
      5134      5133      5138      5136      5134      5133      5138      5139
      5134      5133      5138      5140      5135      5133      5138      5136
      5135      5133      5138      5139      5135      5133      5138      5140
      5136      5138      5140      5141      5136      5138      5140      5142
      5136      5138      5140      5144      5136      5188      5190      5191
      5136      5188      5190      5192      5136      5188      5190      5193
      5137      5136      5138      5139      5137      5136      5138      5140
      5137      5136      5188      5189      5137      5136      5188      5190
      5138      5136      5188      5189      5138      5136      5188      5190
      5138      5140      5142      5143      5138      5140      5144      5145
      5138      5140      5144      5146      5139      5138      5136      5188
      5139      5138      5140      5141      5139      5138      5140      5142
      5139      5138      5140      5144      5140      5138      5136      5188
      5140      5144      5146      5147      5140      5144      5146      5148
      5141      5140      5142      5143      5141      5140      5144      5145
      5141      5140      5144      5146      5142      5140      5144      5145
      5142      5140      5144      5146      5143      5142      5140      5144
      5144      5146      5148      5149      5144      5146      5148      5150
      5144      5146      5148      5151      5145      5144      5146      5147
      5145      5144      5146      5148      5146      5148      5151      5152
      5146      5148      5151      5153      5146      5148      5151      5154
      5147      5146      5148      5149      5147      5146      5148      5150
      5147      5146      5148      5151      5148      5151      5154      5155
      5148      5151      5154      5156      5148      5151      5154      5157
      5149      5148      5151      5152      5149      5148      5151      5153
      5149      5148      5151      5154      5150      5148      5151      5152
      5150      5148      5151      5153      5150      5148      5151      5154
      5151      5154      5157      5158      5151      5154      5157      5159
      5151      5154      5157      5160      5152      5151      5154      5155
      5152      5151      5154      5156      5152      5151      5154      5157
      5153      5151      5154      5155      5153      5151      5154      5156
      5153      5151      5154      5157      5154      5157      5160      5161
      5154      5157      5160      5162      5154      5157      5160      5163
      5155      5154      5157      5158      5155      5154      5157      5159
      5155      5154      5157      5160      5156      5154      5157      5158
      5156      5154      5157      5159      5156      5154      5157      5160
      5157      5160      5163      5164      5157      5160      5163      5165
      5157      5160      5163      5166      5158      5157      5160      5161
      5158      5157      5160      5162      5158      5157      5160      5163
      5159      5157      5160      5161      5159      5157      5160      5162
      5159      5157      5160      5163      5160      5163      5166      5167
      5160      5163      5166      5168      5160      5163      5166      5169
      5161      5160      5163      5164      5161      5160      5163      5165
      5161      5160      5163      5166      5162      5160      5163      5164
      5162      5160      5163      5165      5162      5160      5163      5166
      5163      5166      5169      5170      5163      5166      5169      5171
      5163      5166      5169      5172      5164      5163      5166      5167
      5164      5163      5166      5168      5164      5163      5166      5169
      5165      5163      5166      5167      5165      5163      5166      5168
      5165      5163      5166      5169      5166      5169      5172      5173
      5166      5169      5172      5174      5166      5169      5172      5175
      5167      5166      5169      5170      5167      5166      5169      5171
      5167      5166      5169      5172      5168      5166      5169      5170
      5168      5166      5169      5171      5168      5166      5169      5172
      5169      5172      5175      5176      5169      5172      5175      5177
      5169      5172      5175      5178      5170      5169      5172      5173
      5170      5169      5172      5174      5170      5169      5172      5175
      5171      5169      5172      5173      5171      5169      5172      5174
      5171      5169      5172      5175      5172      5175      5178      5179
      5172      5175      5178      5180      5172      5175      5178      5181
      5173      5172      5175      5176      5173      5172      5175      5177
      5173      5172      5175      5178      5174      5172      5175      5176
      5174      5172      5175      5177      5174      5172      5175      5178
      5175      5178      5181      5182      5175      5178      5181      5183
      5175      5178      5181      5184      5176      5175      5178      5179
      5176      5175      5178      5180      5176      5175      5178      5181
      5177      5175      5178      5179      5177      5175      5178      5180
      5177      5175      5178      5181      5178      5181      5184      5185
      5178      5181      5184      5186      5178      5181      5184      5187
      5179      5178      5181      5182      5179      5178      5181      5183
      5179      5178      5181      5184      5180      5178      5181      5182
      5180      5178      5181      5183      5180      5178      5181      5184
      5182      5181      5184      5185      5182      5181      5184      5186
      5182      5181      5184      5187      5183      5181      5184      5185
      5183      5181      5184      5186      5183      5181      5184      5187
      5188      5190      5193      5194      5188      5190      5193      5195
      5188      5190      5193      5196      5189      5188      5190      5191
      5189      5188      5190      5192      5189      5188      5190      5193
      5190      5193      5196      5197      5190      5193      5196      5198
      5190      5193      5196      5199      5191      5190      5193      5194
      5191      5190      5193      5195      5191      5190      5193      5196
      5192      5190      5193      5194      5192      5190      5193      5195
      5192      5190      5193      5196      5193      5196      5199      5200
      5193      5196      5199      5201      5193      5196      5199      5202
      5194      5193      5196      5197      5194      5193      5196      5198
      5194      5193      5196      5199      5195      5193      5196      5197
      5195      5193      5196      5198      5195      5193      5196      5199
      5196      5199      5202      5203      5196      5199      5202      5204
      5196      5199      5202      5205      5197      5196      5199      5200
      5197      5196      5199      5201      5197      5196      5199      5202
      5198      5196      5199      5200      5198      5196      5199      5201
      5198      5196      5199      5202      5199      5202      5205      5206
      5199      5202      5205      5207      5199      5202      5205      5208
      5200      5199      5202      5203      5200      5199      5202      5204
      5200      5199      5202      5205      5201      5199      5202      5203
      5201      5199      5202      5204      5201      5199      5202      5205
      5202      5205      5208      5209      5202      5205      5208      5210
      5202      5205      5208      5211      5203      5202      5205      5206
      5203      5202      5205      5207      5203      5202      5205      5208
      5204      5202      5205      5206      5204      5202      5205      5207
      5204      5202      5205      5208      5205      5208      5211      5212
      5205      5208      5211      5213      5206      5205      5208      5209
      5206      5205      5208      5210      5206      5205      5208      5211
      5207      5205      5208      5209      5207      5205      5208      5210
      5207      5205      5208      5211      5208      5211      5213      5214
      5208      5211      5213      5215      5209      5208      5211      5212
      5209      5208      5211      5213      5210      5208      5211      5212
      5210      5208      5211      5213      5211      5213      5215      5216
      5211      5213      5215      5217      5211      5213      5215      5218
      5212      5211      5213      5214      5212      5211      5213      5215
      5213      5215      5218      5219      5213      5215      5218      5220
      5213      5215      5218      5221      5214      5213      5215      5216
      5214      5213      5215      5217      5214      5213      5215      5218
      5215      5218      5221      5222      5215      5218      5221      5223
      5215      5218      5221      5224      5216      5215      5218      5219
      5216      5215      5218      5220      5216      5215      5218      5221
      5217      5215      5218      5219      5217      5215      5218      5220
      5217      5215      5218      5221      5218      5221      5224      5225
      5218      5221      5224      5226      5218      5221      5224      5227
      5219      5218      5221      5222      5219      5218      5221      5223
      5219      5218      5221      5224      5220      5218      5221      5222
      5220      5218      5221      5223      5220      5218      5221      5224
      5221      5224      5227      5228      5221      5224      5227      5229
      5221      5224      5227      5230      5222      5221      5224      5225
      5222      5221      5224      5226      5222      5221      5224      5227
      5223      5221      5224      5225      5223      5221      5224      5226
      5223      5221      5224      5227      5224      5227      5230      5231
      5224      5227      5230      5232      5224      5227      5230      5233
      5225      5224      5227      5228      5225      5224      5227      5229
      5225      5224      5227      5230      5226      5224      5227      5228
      5226      5224      5227      5229      5226      5224      5227      5230
      5227      5230      5233      5234      5227      5230      5233      5235
      5227      5230      5233      5236      5228      5227      5230      5231
      5228      5227      5230      5232      5228      5227      5230      5233
      5229      5227      5230      5231      5229      5227      5230      5232
      5229      5227      5230      5233      5230      5233      5236      5237
      5230      5233      5236      5238      5230      5233      5236      5239
      5231      5230      5233      5234      5231      5230      5233      5235
      5231      5230      5233      5236      5232      5230      5233      5234
      5232      5230      5233      5235      5232      5230      5233      5236
      5234      5233      5236      5237      5234      5233      5236      5238
      5234      5233      5236      5239      5235      5233      5236      5237
      5235      5233      5236      5238      5235      5233      5236      5239
      5240      5253      5256      5257      5240      5253      5256      5258
      5240      5253      5256      5263      5241      5240      5245      5246
      5241      5240      5245      5247      5241      5240      5245      5248
      5241      5240      5249      5250      5241      5240      5249      5251
      5241      5240      5249      5252      5241      5240      5253      5254
      5241      5240      5253      5255      5241      5240      5253      5256
      5242      5241      5240      5245      5242      5241      5240      5249
      5242      5241      5240      5253      5243      5241      5240      5245
      5243      5241      5240      5249      5243      5241      5240      5253
      5244      5241      5240      5245      5244      5241      5240      5249
      5244      5241      5240      5253      5245      5240      5249      5250
      5245      5240      5249      5251      5245      5240      5249      5252
      5245      5240      5253      5254      5245      5240      5253      5255
      5245      5240      5253      5256      5246      5245      5240      5249
      5246      5245      5240      5253      5247      5245      5240      5249
      5247      5245      5240      5253      5248      5245      5240      5249
      5248      5245      5240      5253      5249      5240      5253      5254
      5249      5240      5253      5255      5249      5240      5253      5256
      5250      5249      5240      5253      5251      5249      5240      5253
      5252      5249      5240      5253      5253      5256      5263      5259
      5254      5253      5256      5257      5254      5253      5256      5258
      5254      5253      5256      5263      5255      5253      5256      5257
      5255      5253      5256      5258      5255      5253      5256      5263
      5256      5263      5259      5260      5256      5263      5259      5261
      5256      5263      5259      5262      5257      5256      5263      5259
      5258      5256      5263      5259      5259      5262      5264      5265
      5259      5262      5264      5266      5259      5262      5264      5269
      5260      5259      5262      5264      5261      5259      5262      5264
      5262      5264      5269      5267      5262      5264      5269      5270
      5262      5264      5269      5271      5263      5259      5262      5264
      5264      5269      5267      5268      5264      5269      5267      5319
      5264      5269      5271      5272      5264      5269      5271      5273
      5264      5269      5271      5275      5265      5264      5269      5267
      5265      5264      5269      5270      5265      5264      5269      5271
      5266      5264      5269      5267      5266      5264      5269      5270
      5266      5264      5269      5271      5267      5269      5271      5272
      5267      5269      5271      5273      5267      5269      5271      5275
      5267      5319      5321      5322      5267      5319      5321      5323
      5267      5319      5321      5324      5268      5267      5269      5270
      5268      5267      5269      5271      5268      5267      5319      5320
      5268      5267      5319      5321      5269      5267      5319      5320
      5269      5267      5319      5321      5269      5271      5273      5274
      5269      5271      5275      5276      5269      5271      5275      5277
      5270      5269      5267      5319      5270      5269      5271      5272
      5270      5269      5271      5273      5270      5269      5271      5275
      5271      5269      5267      5319      5271      5275      5277      5278
      5271      5275      5277      5279      5272      5271      5273      5274
      5272      5271      5275      5276      5272      5271      5275      5277
      5273      5271      5275      5276      5273      5271      5275      5277
      5274      5273      5271      5275      5275      5277      5279      5280
      5275      5277      5279      5281      5275      5277      5279      5282
      5276      5275      5277      5278      5276      5275      5277      5279
      5277      5279      5282      5283      5277      5279      5282      5284
      5277      5279      5282      5285      5278      5277      5279      5280
      5278      5277      5279      5281      5278      5277      5279      5282
      5279      5282      5285      5286      5279      5282      5285      5287
      5279      5282      5285      5288      5280      5279      5282      5283
      5280      5279      5282      5284      5280      5279      5282      5285
      5281      5279      5282      5283      5281      5279      5282      5284
      5281      5279      5282      5285      5282      5285      5288      5289
      5282      5285      5288      5290      5282      5285      5288      5291
      5283      5282      5285      5286      5283      5282      5285      5287
      5283      5282      5285      5288      5284      5282      5285      5286
      5284      5282      5285      5287      5284      5282      5285      5288
      5285      5288      5291      5292      5285      5288      5291      5293
      5285      5288      5291      5294      5286      5285      5288      5289
      5286      5285      5288      5290      5286      5285      5288      5291
      5287      5285      5288      5289      5287      5285      5288      5290
      5287      5285      5288      5291      5288      5291      5294      5295
      5288      5291      5294      5296      5288      5291      5294      5297
      5289      5288      5291      5292      5289      5288      5291      5293
      5289      5288      5291      5294      5290      5288      5291      5292
      5290      5288      5291      5293      5290      5288      5291      5294
      5291      5294      5297      5298      5291      5294      5297      5299
      5291      5294      5297      5300      5292      5291      5294      5295
      5292      5291      5294      5296      5292      5291      5294      5297
      5293      5291      5294      5295      5293      5291      5294      5296
      5293      5291      5294      5297      5294      5297      5300      5301
      5294      5297      5300      5302      5294      5297      5300      5303
      5295      5294      5297      5298      5295      5294      5297      5299
      5295      5294      5297      5300      5296      5294      5297      5298
      5296      5294      5297      5299      5296      5294      5297      5300
      5297      5300      5303      5304      5297      5300      5303      5305
      5297      5300      5303      5306      5298      5297      5300      5301
      5298      5297      5300      5302      5298      5297      5300      5303
      5299      5297      5300      5301      5299      5297      5300      5302
      5299      5297      5300      5303      5300      5303      5306      5307
      5300      5303      5306      5308      5300      5303      5306      5309
      5301      5300      5303      5304      5301      5300      5303      5305
      5301      5300      5303      5306      5302      5300      5303      5304
      5302      5300      5303      5305      5302      5300      5303      5306
      5303      5306      5309      5310      5303      5306      5309      5311
      5303      5306      5309      5312      5304      5303      5306      5307
      5304      5303      5306      5308      5304      5303      5306      5309
      5305      5303      5306      5307      5305      5303      5306      5308
      5305      5303      5306      5309      5306      5309      5312      5313
      5306      5309      5312      5314      5306      5309      5312      5315
      5307      5306      5309      5310      5307      5306      5309      5311
      5307      5306      5309      5312      5308      5306      5309      5310
      5308      5306      5309      5311      5308      5306      5309      5312
      5309      5312      5315      5316      5309      5312      5315      5317
      5309      5312      5315      5318      5310      5309      5312      5313
      5310      5309      5312      5314      5310      5309      5312      5315
      5311      5309      5312      5313      5311      5309      5312      5314
      5311      5309      5312      5315      5313      5312      5315      5316
      5313      5312      5315      5317      5313      5312      5315      5318
      5314      5312      5315      5316      5314      5312      5315      5317
      5314      5312      5315      5318      5319      5321      5324      5325
      5319      5321      5324      5326      5319      5321      5324      5327
      5320      5319      5321      5322      5320      5319      5321      5323
      5320      5319      5321      5324      5321      5324      5327      5328
      5321      5324      5327      5329      5321      5324      5327      5330
      5322      5321      5324      5325      5322      5321      5324      5326
      5322      5321      5324      5327      5323      5321      5324      5325
      5323      5321      5324      5326      5323      5321      5324      5327
      5324      5327      5330      5331      5324      5327      5330      5332
      5324      5327      5330      5333      5325      5324      5327      5328
      5325      5324      5327      5329      5325      5324      5327      5330
      5326      5324      5327      5328      5326      5324      5327      5329
      5326      5324      5327      5330      5327      5330      5333      5334
      5327      5330      5333      5335      5327      5330      5333      5336
      5328      5327      5330      5331      5328      5327      5330      5332
      5328      5327      5330      5333      5329      5327      5330      5331
      5329      5327      5330      5332      5329      5327      5330      5333
      5330      5333      5336      5337      5330      5333      5336      5338
      5330      5333      5336      5339      5331      5330      5333      5334
      5331      5330      5333      5335      5331      5330      5333      5336
      5332      5330      5333      5334      5332      5330      5333      5335
      5332      5330      5333      5336      5333      5336      5339      5340
      5333      5336      5339      5341      5333      5336      5339      5342
      5334      5333      5336      5337      5334      5333      5336      5338
      5334      5333      5336      5339      5335      5333      5336      5337
      5335      5333      5336      5338      5335      5333      5336      5339
      5336      5339      5342      5343      5336      5339      5342      5344
      5337      5336      5339      5340      5337      5336      5339      5341
      5337      5336      5339      5342      5338      5336      5339      5340
      5338      5336      5339      5341      5338      5336      5339      5342
      5339      5342      5344      5345      5339      5342      5344      5346
      5340      5339      5342      5343      5340      5339      5342      5344
      5341      5339      5342      5343      5341      5339      5342      5344
      5342      5344      5346      5347      5342      5344      5346      5348
      5342      5344      5346      5349      5343      5342      5344      5345
      5343      5342      5344      5346      5344      5346      5349      5350
      5344      5346      5349      5351      5344      5346      5349      5352
      5345      5344      5346      5347      5345      5344      5346      5348
      5345      5344      5346      5349      5346      5349      5352      5353
      5346      5349      5352      5354      5346      5349      5352      5355
      5347      5346      5349      5350      5347      5346      5349      5351
      5347      5346      5349      5352      5348      5346      5349      5350
      5348      5346      5349      5351      5348      5346      5349      5352
      5349      5352      5355      5356      5349      5352      5355      5357
      5349      5352      5355      5358      5350      5349      5352      5353
      5350      5349      5352      5354      5350      5349      5352      5355
      5351      5349      5352      5353      5351      5349      5352      5354
      5351      5349      5352      5355      5352      5355      5358      5359
      5352      5355      5358      5360      5352      5355      5358      5361
      5353      5352      5355      5356      5353      5352      5355      5357
      5353      5352      5355      5358      5354      5352      5355      5356
      5354      5352      5355      5357      5354      5352      5355      5358
      5355      5358      5361      5362      5355      5358      5361      5363
      5355      5358      5361      5364      5356      5355      5358      5359
      5356      5355      5358      5360      5356      5355      5358      5361
      5357      5355      5358      5359      5357      5355      5358      5360
      5357      5355      5358      5361      5358      5361      5364      5365
      5358      5361      5364      5366      5358      5361      5364      5367
      5359      5358      5361      5362      5359      5358      5361      5363
      5359      5358      5361      5364      5360      5358      5361      5362
      5360      5358      5361      5363      5360      5358      5361      5364
      5361      5364      5367      5368      5361      5364      5367      5369
      5361      5364      5367      5370      5362      5361      5364      5365
      5362      5361      5364      5366      5362      5361      5364      5367
      5363      5361      5364      5365      5363      5361      5364      5366
      5363      5361      5364      5367      5365      5364      5367      5368
      5365      5364      5367      5369      5365      5364      5367      5370
      5366      5364      5367      5368      5366      5364      5367      5369
      5366      5364      5367      5370      5371      5375      5378      5379
      5371      5375      5378      5409      5371      5417      5414      5409
      5371      5417      5414      5415      5371      5417      5414      5416
      5372      5371      5373      5374      5372      5371      5375      5376
      5372      5371      5375      5377      5372      5371      5375      5378
      5372      5371      5417      5414      5372      5371      5417      5418
      5372      5371      5417      5419      5373      5371      5375      5376
      5373      5371      5375      5377      5373      5371      5375      5378
      5373      5371      5417      5414      5373      5371      5417      5418
      5373      5371      5417      5419      5374      5373      5371      5375
      5374      5373      5371      5417      5375      5371      5417      5414
      5375      5371      5417      5418      5375      5371      5417      5419
      5375      5378      5379      5380      5375      5378      5379      5381
      5375      5378      5409      5407      5375      5378      5409      5410
      5375      5378      5409      5414      5376      5375      5371      5417
      5376      5375      5378      5379      5376      5375      5378      5409
      5377      5375      5371      5417      5377      5375      5378      5379
      5377      5375      5378      5409      5378      5375      5371      5417
      5378      5379      5381      5382      5378      5379      5381      5383
      5378      5379      5381      5384      5378      5409      5407      5384
      5378      5409      5407      5404      5378      5409      5407      5408
      5378      5409      5410      5411      5378      5409      5410      5412
      5378      5409      5410      5413      5378      5409      5414      5415
      5378      5409      5414      5416      5378      5409      5414      5417
      5379      5378      5409      5407      5379      5378      5409      5410
      5379      5378      5409      5414      5379      5381      5384      5385
      5379      5381      5384      5386      5379      5381      5384      5407
      5380      5379      5378      5409      5380      5379      5381      5382
      5380      5379      5381      5383      5380      5379      5381      5384
      5381      5379      5378      5409      5381      5384      5386      5387
      5381      5384      5386      5388      5381      5384      5386      5396
      5381      5384      5407      5404      5381      5384      5407      5408
      5381      5384      5407      5409      5382      5381      5384      5385
      5382      5381      5384      5386      5382      5381      5384      5407
      5383      5381      5384      5385      5383      5381      5384      5386
      5383      5381      5384      5407      5384      5386      5388      5389
      5384      5386      5388      5390      5384      5386      5388      5391
      5384      5386      5396      5394      5384      5386      5396      5397
      5384      5386      5396      5401      5384      5407      5404      5401
      5384      5407      5404      5405      5384      5407      5404      5406
      5384      5407      5409      5410      5384      5407      5409      5414
      5385      5384      5386      5387      5385      5384      5386      5388
      5385      5384      5386      5396      5385      5384      5407      5404
      5385      5384      5407      5408      5385      5384      5407      5409
      5386      5384      5407      5404      5386      5384      5407      5408
      5386      5384      5407      5409      5386      5388      5391      5392
      5386      5388      5391      5393      5386      5388      5391      5394
      5386      5396      5394      5391      5386      5396      5394      5395
      5386      5396      5394      5420      5386      5396      5397      5398
      5386      5396      5397      5399      5386      5396      5397      5400
      5386      5396      5401      5402      5386      5396      5401      5403
      5386      5396      5401      5404      5387      5386      5384      5407
      5387      5386      5388      5389      5387      5386      5388      5390
      5387      5386      5388      5391      5387      5386      5396      5394
      5387      5386      5396      5397      5387      5386      5396      5401
      5388      5386      5384      5407      5388      5386      5396      5394
      5388      5386      5396      5397      5388      5386      5396      5401
      5388      5391      5394      5395      5388      5391      5394      5396
      5388      5391      5394      5420      5389      5388      5386      5396
      5389      5388      5391      5392      5389      5388      5391      5393
      5389      5388      5391      5394      5390      5388      5386      5396
      5390      5388      5391      5392      5390      5388      5391      5393
      5390      5388      5391      5394      5391      5388      5386      5396
      5391      5394      5396      5397      5391      5394      5396      5401
      5391      5394      5420      5421      5391      5394      5420      5422
      5391      5394      5420      5426      5392      5391      5394      5395
      5392      5391      5394      5396      5392      5391      5394      5420
      5393      5391      5394      5395      5393      5391      5394      5396
      5393      5391      5394      5420      5394      5396      5397      5398
      5394      5396      5397      5399      5394      5396      5397      5400
      5394      5396      5401      5402      5394      5396      5401      5403
      5394      5396      5401      5404      5394      5420      5422      5423
      5394      5420      5422      5424      5394      5420      5422      5425
      5394      5420      5426      5427      5394      5420      5426      5428
      5394      5420      5426      5429      5395      5394      5396      5397
      5395      5394      5396      5401      5395      5394      5420      5421
      5395      5394      5420      5422      5395      5394      5420      5426
      5396      5386      5384      5407      5396      5394      5420      5421
      5396      5394      5420      5422      5396      5394      5420      5426
      5396      5401      5404      5405      5396      5401      5404      5406
      5396      5401      5404      5407      5397      5396      5394      5420
      5397      5396      5401      5402      5397      5396      5401      5403
      5397      5396      5401      5404      5398      5397      5396      5401
      5399      5397      5396      5401      5400      5397      5396      5401
      5401      5396      5394      5420      5401      5404      5407      5408
      5401      5404      5407      5409      5402      5401      5404      5405
      5402      5401      5404      5406      5402      5401      5404      5407
      5403      5401      5404      5405      5403      5401      5404      5406
      5403      5401      5404      5407      5404      5407      5409      5410
      5404      5407      5409      5414      5405      5404      5407      5408
      5405      5404      5407      5409      5406      5404      5407      5408
      5406      5404      5407      5409      5407      5409      5410      5411
      5407      5409      5410      5412      5407      5409      5410      5413
      5407      5409      5414      5415      5407      5409      5414      5416
      5407      5409      5414      5417      5408      5407      5409      5410
      5408      5407      5409      5414      5409      5414      5417      5418
      5409      5414      5417      5419      5410      5409      5414      5415
      5410      5409      5414      5416      5410      5409      5414      5417
      5411      5410      5409      5414      5412      5410      5409      5414
      5413      5410      5409      5414      5415      5414      5417      5418
      5415      5414      5417      5419      5416      5414      5417      5418
      5416      5414      5417      5419      5420      5426      5429      5430
      5420      5426      5429      5431      5420      5426      5429      5432
      5421      5420      5422      5423      5421      5420      5422      5424
      5421      5420      5422      5425      5421      5420      5426      5427
      5421      5420      5426      5428      5421      5420      5426      5429
      5422      5420      5426      5427      5422      5420      5426      5428
      5422      5420      5426      5429      5423      5422      5420      5426
      5424      5422      5420      5426      5425      5422      5420      5426
      5426      5429      5432      5433      5426      5429      5432      5434
      5426      5429      5432      5435      5427      5426      5429      5430
      5427      5426      5429      5431      5427      5426      5429      5432
      5428      5426      5429      5430      5428      5426      5429      5431
      5428      5426      5429      5432      5429      5432      5435      5436
      5429      5432      5435      5437      5429      5432      5435      5441
      5430      5429      5432      5433      5430      5429      5432      5434
      5430      5429      5432      5435      5431      5429      5432      5433
      5431      5429      5432      5434      5431      5429      5432      5435
      5432      5435      5437      5438      5432      5435      5437      5439
      5432      5435      5437      5440      5432      5435      5441      5442
      5432      5435      5441      5443      5432      5435      5441      5444
      5433      5432      5435      5436      5433      5432      5435      5437
      5433      5432      5435      5441      5434      5432      5435      5436
      5434      5432      5435      5437      5434      5432      5435      5441
      5436      5435      5437      5438      5436      5435      5437      5439
      5436      5435      5437      5440      5436      5435      5441      5442
      5436      5435      5441      5443      5436      5435      5441      5444
      5437      5435      5441      5442      5437      5435      5441      5443
      5437      5435      5441      5444      5438      5437      5435      5441
      5439      5437      5435      5441      5440      5437      5435      5441
      5445      5449      5452      5453      5445      5449      5452      5483
      5445      5491      5488      5483      5445      5491      5488      5489
      5445      5491      5488      5490      5446      5445      5447      5448
      5446      5445      5449      5450      5446      5445      5449      5451
      5446      5445      5449      5452      5446      5445      5491      5488
      5446      5445      5491      5492      5446      5445      5491      5493
      5447      5445      5449      5450      5447      5445      5449      5451
      5447      5445      5449      5452      5447      5445      5491      5488
      5447      5445      5491      5492      5447      5445      5491      5493
      5448      5447      5445      5449      5448      5447      5445      5491
      5449      5445      5491      5488      5449      5445      5491      5492
      5449      5445      5491      5493      5449      5452      5453      5454
      5449      5452      5453      5455      5449      5452      5483      5481
      5449      5452      5483      5484      5449      5452      5483      5488
      5450      5449      5445      5491      5450      5449      5452      5453
      5450      5449      5452      5483      5451      5449      5445      5491
      5451      5449      5452      5453      5451      5449      5452      5483
      5452      5449      5445      5491      5452      5453      5455      5456
      5452      5453      5455      5457      5452      5453      5455      5458
      5452      5483      5481      5458      5452      5483      5481      5478
      5452      5483      5481      5482      5452      5483      5484      5485
      5452      5483      5484      5486      5452      5483      5484      5487
      5452      5483      5488      5489      5452      5483      5488      5490
      5452      5483      5488      5491      5453      5452      5483      5481
      5453      5452      5483      5484      5453      5452      5483      5488
      5453      5455      5458      5459      5453      5455      5458      5460
      5453      5455      5458      5481      5454      5453      5452      5483
      5454      5453      5455      5456      5454      5453      5455      5457
      5454      5453      5455      5458      5455      5453      5452      5483
      5455      5458      5460      5461      5455      5458      5460      5462
      5455      5458      5460      5470      5455      5458      5481      5478
      5455      5458      5481      5482      5455      5458      5481      5483
      5456      5455      5458      5459      5456      5455      5458      5460
      5456      5455      5458      5481      5457      5455      5458      5459
      5457      5455      5458      5460      5457      5455      5458      5481
      5458      5460      5462      5463      5458      5460      5462      5464
      5458      5460      5462      5465      5458      5460      5470      5468
      5458      5460      5470      5471      5458      5460      5470      5475
      5458      5481      5478      5475      5458      5481      5478      5479
      5458      5481      5478      5480      5458      5481      5483      5484
      5458      5481      5483      5488      5459      5458      5460      5461
      5459      5458      5460      5462      5459      5458      5460      5470
      5459      5458      5481      5478      5459      5458      5481      5482
      5459      5458      5481      5483      5460      5458      5481      5478
      5460      5458      5481      5482      5460      5458      5481      5483
      5460      5462      5465      5466      5460      5462      5465      5467
      5460      5462      5465      5468      5460      5470      5468      5465
      5460      5470      5468      5469      5460      5470      5468      5494
      5460      5470      5471      5472      5460      5470      5471      5473
      5460      5470      5471      5474      5460      5470      5475      5476
      5460      5470      5475      5477      5460      5470      5475      5478
      5461      5460      5458      5481      5461      5460      5462      5463
      5461      5460      5462      5464      5461      5460      5462      5465
      5461      5460      5470      5468      5461      5460      5470      5471
      5461      5460      5470      5475      5462      5460      5458      5481
      5462      5460      5470      5468      5462      5460      5470      5471
      5462      5460      5470      5475      5462      5465      5468      5469
      5462      5465      5468      5470      5462      5465      5468      5494
      5463      5462      5460      5470      5463      5462      5465      5466
      5463      5462      5465      5467      5463      5462      5465      5468
      5464      5462      5460      5470      5464      5462      5465      5466
      5464      5462      5465      5467      5464      5462      5465      5468
      5465      5462      5460      5470      5465      5468      5470      5471
      5465      5468      5470      5475      5465      5468      5494      5495
      5465      5468      5494      5496      5465      5468      5494      5500
      5466      5465      5468      5469      5466      5465      5468      5470
      5466      5465      5468      5494      5467      5465      5468      5469
      5467      5465      5468      5470      5467      5465      5468      5494
      5468      5470      5471      5472      5468      5470      5471      5473
      5468      5470      5471      5474      5468      5470      5475      5476
      5468      5470      5475      5477      5468      5470      5475      5478
      5468      5494      5496      5497      5468      5494      5496      5498
      5468      5494      5496      5499      5468      5494      5500      5501
      5468      5494      5500      5502      5468      5494      5500      5503
      5469      5468      5470      5471      5469      5468      5470      5475
      5469      5468      5494      5495      5469      5468      5494      5496
      5469      5468      5494      5500      5470      5460      5458      5481
      5470      5468      5494      5495      5470      5468      5494      5496
      5470      5468      5494      5500      5470      5475      5478      5479
      5470      5475      5478      5480      5470      5475      5478      5481
      5471      5470      5468      5494      5471      5470      5475      5476
      5471      5470      5475      5477      5471      5470      5475      5478
      5472      5471      5470      5475      5473      5471      5470      5475
      5474      5471      5470      5475      5475      5470      5468      5494
      5475      5478      5481      5482      5475      5478      5481      5483
      5476      5475      5478      5479      5476      5475      5478      5480
      5476      5475      5478      5481      5477      5475      5478      5479
      5477      5475      5478      5480      5477      5475      5478      5481
      5478      5481      5483      5484      5478      5481      5483      5488
      5479      5478      5481      5482      5479      5478      5481      5483
      5480      5478      5481      5482      5480      5478      5481      5483
      5481      5483      5484      5485      5481      5483      5484      5486
      5481      5483      5484      5487      5481      5483      5488      5489
      5481      5483      5488      5490      5481      5483      5488      5491
      5482      5481      5483      5484      5482      5481      5483      5488
      5483      5488      5491      5492      5483      5488      5491      5493
      5484      5483      5488      5489      5484      5483      5488      5490
      5484      5483      5488      5491      5485      5484      5483      5488
      5486      5484      5483      5488      5487      5484      5483      5488
      5489      5488      5491      5492      5489      5488      5491      5493
      5490      5488      5491      5492      5490      5488      5491      5493
      5494      5500      5503      5504      5494      5500      5503      5505
      5494      5500      5503      5506      5495      5494      5496      5497
      5495      5494      5496      5498      5495      5494      5496      5499
      5495      5494      5500      5501      5495      5494      5500      5502
      5495      5494      5500      5503      5496      5494      5500      5501
      5496      5494      5500      5502      5496      5494      5500      5503
      5497      5496      5494      5500      5498      5496      5494      5500
      5499      5496      5494      5500      5500      5503      5506      5507
      5500      5503      5506      5508      5500      5503      5506      5509
      5501      5500      5503      5504      5501      5500      5503      5505
      5501      5500      5503      5506      5502      5500      5503      5504
      5502      5500      5503      5505      5502      5500      5503      5506
      5503      5506      5509      5510      5503      5506      5509      5511
      5503      5506      5509      5515      5504      5503      5506      5507
      5504      5503      5506      5508      5504      5503      5506      5509
      5505      5503      5506      5507      5505      5503      5506      5508
      5505      5503      5506      5509      5506      5509      5511      5512
      5506      5509      5511      5513      5506      5509      5511      5514
      5506      5509      5515      5516      5506      5509      5515      5517
      5506      5509      5515      5518      5507      5506      5509      5510
      5507      5506      5509      5511      5507      5506      5509      5515
      5508      5506      5509      5510      5508      5506      5509      5511
      5508      5506      5509      5515      5510      5509      5511      5512
      5510      5509      5511      5513      5510      5509      5511      5514
      5510      5509      5515      5516      5510      5509      5515      5517
      5510      5509      5515      5518      5511      5509      5515      5516
      5511      5509      5515      5517      5511      5509      5515      5518
      5512      5511      5509      5515      5513      5511      5509      5515
      5514      5511      5509      5515      5519      5523      5526      5527
      5519      5523      5526      5557      5519      5565      5562      5557
      5519      5565      5562      5563      5519      5565      5562      5564
      5520      5519      5521      5522      5520      5519      5523      5524
      5520      5519      5523      5525      5520      5519      5523      5526
      5520      5519      5565      5562      5520      5519      5565      5566
      5520      5519      5565      5567      5521      5519      5523      5524
      5521      5519      5523      5525      5521      5519      5523      5526
      5521      5519      5565      5562      5521      5519      5565      5566
      5521      5519      5565      5567      5522      5521      5519      5523
      5522      5521      5519      5565      5523      5519      5565      5562
      5523      5519      5565      5566      5523      5519      5565      5567
      5523      5526      5527      5528      5523      5526      5527      5529
      5523      5526      5557      5555      5523      5526      5557      5558
      5523      5526      5557      5562      5524      5523      5519      5565
      5524      5523      5526      5527      5524      5523      5526      5557
      5525      5523      5519      5565      5525      5523      5526      5527
      5525      5523      5526      5557      5526      5523      5519      5565
      5526      5527      5529      5530      5526      5527      5529      5531
      5526      5527      5529      5532      5526      5557      5555      5532
      5526      5557      5555      5552      5526      5557      5555      5556
      5526      5557      5558      5559      5526      5557      5558      5560
      5526      5557      5558      5561      5526      5557      5562      5563
      5526      5557      5562      5564      5526      5557      5562      5565
      5527      5526      5557      5555      5527      5526      5557      5558
      5527      5526      5557      5562      5527      5529      5532      5533
      5527      5529      5532      5534      5527      5529      5532      5555
      5528      5527      5526      5557      5528      5527      5529      5530
      5528      5527      5529      5531      5528      5527      5529      5532
      5529      5527      5526      5557      5529      5532      5534      5535
      5529      5532      5534      5536      5529      5532      5534      5544
      5529      5532      5555      5552      5529      5532      5555      5556
      5529      5532      5555      5557      5530      5529      5532      5533
      5530      5529      5532      5534      5530      5529      5532      5555
      5531      5529      5532      5533      5531      5529      5532      5534
      5531      5529      5532      5555      5532      5534      5536      5537
      5532      5534      5536      5538      5532      5534      5536      5539
      5532      5534      5544      5542      5532      5534      5544      5545
      5532      5534      5544      5549      5532      5555      5552      5549
      5532      5555      5552      5553      5532      5555      5552      5554
      5532      5555      5557      5558      5532      5555      5557      5562
      5533      5532      5534      5535      5533      5532      5534      5536
      5533      5532      5534      5544      5533      5532      5555      5552
      5533      5532      5555      5556      5533      5532      5555      5557
      5534      5532      5555      5552      5534      5532      5555      5556
      5534      5532      5555      5557      5534      5536      5539      5540
      5534      5536      5539      5541      5534      5536      5539      5542
      5534      5544      5542      5539      5534      5544      5542      5543
      5534      5544      5542      5568      5534      5544      5545      5546
      5534      5544      5545      5547      5534      5544      5545      5548
      5534      5544      5549      5550      5534      5544      5549      5551
      5534      5544      5549      5552      5535      5534      5532      5555
      5535      5534      5536      5537      5535      5534      5536      5538
      5535      5534      5536      5539      5535      5534      5544      5542
      5535      5534      5544      5545      5535      5534      5544      5549
      5536      5534      5532      5555      5536      5534      5544      5542
      5536      5534      5544      5545      5536      5534      5544      5549
      5536      5539      5542      5543      5536      5539      5542      5544
      5536      5539      5542      5568      5537      5536      5534      5544
      5537      5536      5539      5540      5537      5536      5539      5541
      5537      5536      5539      5542      5538      5536      5534      5544
      5538      5536      5539      5540      5538      5536      5539      5541
      5538      5536      5539      5542      5539      5536      5534      5544
      5539      5542      5544      5545      5539      5542      5544      5549
      5539      5542      5568      5569      5539      5542      5568      5570
      5539      5542      5568      5574      5540      5539      5542      5543
      5540      5539      5542      5544      5540      5539      5542      5568
      5541      5539      5542      5543      5541      5539      5542      5544
      5541      5539      5542      5568      5542      5544      5545      5546
      5542      5544      5545      5547      5542      5544      5545      5548
      5542      5544      5549      5550      5542      5544      5549      5551
      5542      5544      5549      5552      5542      5568      5570      5571
      5542      5568      5570      5572      5542      5568      5570      5573
      5542      5568      5574      5575      5542      5568      5574      5576
      5542      5568      5574      5577      5543      5542      5544      5545
      5543      5542      5544      5549      5543      5542      5568      5569
      5543      5542      5568      5570      5543      5542      5568      5574
      5544      5534      5532      5555      5544      5542      5568      5569
      5544      5542      5568      5570      5544      5542      5568      5574
      5544      5549      5552      5553      5544      5549      5552      5554
      5544      5549      5552      5555      5545      5544      5542      5568
      5545      5544      5549      5550      5545      5544      5549      5551
      5545      5544      5549      5552      5546      5545      5544      5549
      5547      5545      5544      5549      5548      5545      5544      5549
      5549      5544      5542      5568      5549      5552      5555      5556
      5549      5552      5555      5557      5550      5549      5552      5553
      5550      5549      5552      5554      5550      5549      5552      5555
      5551      5549      5552      5553      5551      5549      5552      5554
      5551      5549      5552      5555      5552      5555      5557      5558
      5552      5555      5557      5562      5553      5552      5555      5556
      5553      5552      5555      5557      5554      5552      5555      5556
      5554      5552      5555      5557      5555      5557      5558      5559
      5555      5557      5558      5560      5555      5557      5558      5561
      5555      5557      5562      5563      5555      5557      5562      5564
      5555      5557      5562      5565      5556      5555      5557      5558
      5556      5555      5557      5562      5557      5562      5565      5566
      5557      5562      5565      5567      5558      5557      5562      5563
      5558      5557      5562      5564      5558      5557      5562      5565
      5559      5558      5557      5562      5560      5558      5557      5562
      5561      5558      5557      5562      5563      5562      5565      5566
      5563      5562      5565      5567      5564      5562      5565      5566
      5564      5562      5565      5567      5568      5574      5577      5578
      5568      5574      5577      5579      5568      5574      5577      5580
      5569      5568      5570      5571      5569      5568      5570      5572
      5569      5568      5570      5573      5569      5568      5574      5575
      5569      5568      5574      5576      5569      5568      5574      5577
      5570      5568      5574      5575      5570      5568      5574      5576
      5570      5568      5574      5577      5571      5570      5568      5574
      5572      5570      5568      5574      5573      5570      5568      5574
      5574      5577      5580      5581      5574      5577      5580      5582
      5574      5577      5580      5583      5575      5574      5577      5578
      5575      5574      5577      5579      5575      5574      5577      5580
      5576      5574      5577      5578      5576      5574      5577      5579
      5576      5574      5577      5580      5577      5580      5583      5584
      5577      5580      5583      5585      5577      5580      5583      5589
      5578      5577      5580      5581      5578      5577      5580      5582
      5578      5577      5580      5583      5579      5577      5580      5581
      5579      5577      5580      5582      5579      5577      5580      5583
      5580      5583      5585      5586      5580      5583      5585      5587
      5580      5583      5585      5588      5580      5583      5589      5590
      5580      5583      5589      5591      5580      5583      5589      5592
      5581      5580      5583      5584      5581      5580      5583      5585
      5581      5580      5583      5589      5582      5580      5583      5584
      5582      5580      5583      5585      5582      5580      5583      5589
      5584      5583      5585      5586      5584      5583      5585      5587
      5584      5583      5585      5588      5584      5583      5589      5590
      5584      5583      5589      5591      5584      5583      5589      5592
      5585      5583      5589      5590      5585      5583      5589      5591
      5585      5583      5589      5592      5586      5585      5583      5589
      5587      5585      5583      5589      5588      5585      5583      5589
      5593      5597      5600      5601      5593      5597      5600      5631
      5593      5639      5636      5631      5593      5639      5636      5637
      5593      5639      5636      5638      5594      5593      5595      5596
      5594      5593      5597      5598      5594      5593      5597      5599
      5594      5593      5597      5600      5594      5593      5639      5636
      5594      5593      5639      5640      5594      5593      5639      5641
      5595      5593      5597      5598      5595      5593      5597      5599
      5595      5593      5597      5600      5595      5593      5639      5636
      5595      5593      5639      5640      5595      5593      5639      5641
      5596      5595      5593      5597      5596      5595      5593      5639
      5597      5593      5639      5636      5597      5593      5639      5640
      5597      5593      5639      5641      5597      5600      5601      5602
      5597      5600      5601      5603      5597      5600      5631      5629
      5597      5600      5631      5632      5597      5600      5631      5636
      5598      5597      5593      5639      5598      5597      5600      5601
      5598      5597      5600      5631      5599      5597      5593      5639
      5599      5597      5600      5601      5599      5597      5600      5631
      5600      5597      5593      5639      5600      5601      5603      5604
      5600      5601      5603      5605      5600      5601      5603      5606
      5600      5631      5629      5606      5600      5631      5629      5626
      5600      5631      5629      5630      5600      5631      5632      5633
      5600      5631      5632      5634      5600      5631      5632      5635
      5600      5631      5636      5637      5600      5631      5636      5638
      5600      5631      5636      5639      5601      5600      5631      5629
      5601      5600      5631      5632      5601      5600      5631      5636
      5601      5603      5606      5607      5601      5603      5606      5608
      5601      5603      5606      5629      5602      5601      5600      5631
      5602      5601      5603      5604      5602      5601      5603      5605
      5602      5601      5603      5606      5603      5601      5600      5631
      5603      5606      5608      5609      5603      5606      5608      5610
      5603      5606      5608      5618      5603      5606      5629      5626
      5603      5606      5629      5630      5603      5606      5629      5631
      5604      5603      5606      5607      5604      5603      5606      5608
      5604      5603      5606      5629      5605      5603      5606      5607
      5605      5603      5606      5608      5605      5603      5606      5629
      5606      5608      5610      5611      5606      5608      5610      5612
      5606      5608      5610      5613      5606      5608      5618      5616
      5606      5608      5618      5619      5606      5608      5618      5623
      5606      5629      5626      5623      5606      5629      5626      5627
      5606      5629      5626      5628      5606      5629      5631      5632
      5606      5629      5631      5636      5607      5606      5608      5609
      5607      5606      5608      5610      5607      5606      5608      5618
      5607      5606      5629      5626      5607      5606      5629      5630
      5607      5606      5629      5631      5608      5606      5629      5626
      5608      5606      5629      5630      5608      5606      5629      5631
      5608      5610      5613      5614      5608      5610      5613      5615
      5608      5610      5613      5616      5608      5618      5616      5613
      5608      5618      5616      5617      5608      5618      5616      5642
      5608      5618      5619      5620      5608      5618      5619      5621
      5608      5618      5619      5622      5608      5618      5623      5624
      5608      5618      5623      5625      5608      5618      5623      5626
      5609      5608      5606      5629      5609      5608      5610      5611
      5609      5608      5610      5612      5609      5608      5610      5613
      5609      5608      5618      5616      5609      5608      5618      5619
      5609      5608      5618      5623      5610      5608      5606      5629
      5610      5608      5618      5616      5610      5608      5618      5619
      5610      5608      5618      5623      5610      5613      5616      5617
      5610      5613      5616      5618      5610      5613      5616      5642
      5611      5610      5608      5618      5611      5610      5613      5614
      5611      5610      5613      5615      5611      5610      5613      5616
      5612      5610      5608      5618      5612      5610      5613      5614
      5612      5610      5613      5615      5612      5610      5613      5616
      5613      5610      5608      5618      5613      5616      5618      5619
      5613      5616      5618      5623      5613      5616      5642      5643
      5613      5616      5642      5644      5613      5616      5642      5648
      5614      5613      5616      5617      5614      5613      5616      5618
      5614      5613      5616      5642      5615      5613      5616      5617
      5615      5613      5616      5618      5615      5613      5616      5642
      5616      5618      5619      5620      5616      5618      5619      5621
      5616      5618      5619      5622      5616      5618      5623      5624
      5616      5618      5623      5625      5616      5618      5623      5626
      5616      5642      5644      5645      5616      5642      5644      5646
      5616      5642      5644      5647      5616      5642      5648      5649
      5616      5642      5648      5650      5616      5642      5648      5651
      5617      5616      5618      5619      5617      5616      5618      5623
      5617      5616      5642      5643      5617      5616      5642      5644
      5617      5616      5642      5648      5618      5608      5606      5629
      5618      5616      5642      5643      5618      5616      5642      5644
      5618      5616      5642      5648      5618      5623      5626      5627
      5618      5623      5626      5628      5618      5623      5626      5629
      5619      5618      5616      5642      5619      5618      5623      5624
      5619      5618      5623      5625      5619      5618      5623      5626
      5620      5619      5618      5623      5621      5619      5618      5623
      5622      5619      5618      5623      5623      5618      5616      5642
      5623      5626      5629      5630      5623      5626      5629      5631
      5624      5623      5626      5627      5624      5623      5626      5628
      5624      5623      5626      5629      5625      5623      5626      5627
      5625      5623      5626      5628      5625      5623      5626      5629
      5626      5629      5631      5632      5626      5629      5631      5636
      5627      5626      5629      5630      5627      5626      5629      5631
      5628      5626      5629      5630      5628      5626      5629      5631
      5629      5631      5632      5633      5629      5631      5632      5634
      5629      5631      5632      5635      5629      5631      5636      5637
      5629      5631      5636      5638      5629      5631      5636      5639
      5630      5629      5631      5632      5630      5629      5631      5636
      5631      5636      5639      5640      5631      5636      5639      5641
      5632      5631      5636      5637      5632      5631      5636      5638
      5632      5631      5636      5639      5633      5632      5631      5636
      5634      5632      5631      5636      5635      5632      5631      5636
      5637      5636      5639      5640      5637      5636      5639      5641
      5638      5636      5639      5640      5638      5636      5639      5641
      5642      5648      5651      5652      5642      5648      5651      5653
      5642      5648      5651      5654      5643      5642      5644      5645
      5643      5642      5644      5646      5643      5642      5644      5647
      5643      5642      5648      5649      5643      5642      5648      5650
      5643      5642      5648      5651      5644      5642      5648      5649
      5644      5642      5648      5650      5644      5642      5648      5651
      5645      5644      5642      5648      5646      5644      5642      5648
      5647      5644      5642      5648      5648      5651      5654      5655
      5648      5651      5654      5656      5648      5651      5654      5657
      5649      5648      5651      5652      5649      5648      5651      5653
      5649      5648      5651      5654      5650      5648      5651      5652
      5650      5648      5651      5653      5650      5648      5651      5654
      5651      5654      5657      5658      5651      5654      5657      5659
      5651      5654      5657      5663      5652      5651      5654      5655
      5652      5651      5654      5656      5652      5651      5654      5657
      5653      5651      5654      5655      5653      5651      5654      5656
      5653      5651      5654      5657      5654      5657      5659      5660
      5654      5657      5659      5661      5654      5657      5659      5662
      5654      5657      5663      5664      5654      5657      5663      5665
      5654      5657      5663      5666      5655      5654      5657      5658
      5655      5654      5657      5659      5655      5654      5657      5663
      5656      5654      5657      5658      5656      5654      5657      5659
      5656      5654      5657      5663      5658      5657      5659      5660
      5658      5657      5659      5661      5658      5657      5659      5662
      5658      5657      5663      5664      5658      5657      5663      5665
      5658      5657      5663      5666      5659      5657      5663      5664
      5659      5657      5663      5665      5659      5657      5663      5666
      5660      5659      5657      5663      5661      5659      5657      5663
      5662      5659      5657      5663      5667      5671      5674      5675
      5667      5671      5674      5676      5667      5671      5674      5680
      5668      5667      5671      5672      5668      5667      5671      5673
      5668      5667      5671      5674      5669      5667      5671      5672
      5669      5667      5671      5673      5669      5667      5671      5674
      5670      5667      5671      5672      5670      5667      5671      5673
      5670      5667      5671      5674      5671      5674      5680      5677
      5672      5671      5674      5675      5672      5671      5674      5676
      5672      5671      5674      5680      5673      5671      5674      5675
      5673      5671      5674      5676      5673      5671      5674      5680
      5674      5680      5677      5678      5674      5680      5677      5679
      5674      5680      5677      5681      5675      5674      5680      5677
      5676      5674      5680      5677      5677      5681      5682      5683
      5677      5681      5682      5684      5677      5681      5682      5685
      5678      5677      5681      5682      5679      5677      5681      5682
      5680      5677      5681      5682      5681      5682      5685      5686
      5681      5682      5685      5687      5681      5682      5685      5693
      5682      5685      5687      5688      5682      5685      5693      5694
      5682      5685      5693      5695      5682      5685      5693      5696
      5683      5682      5685      5686      5683      5682      5685      5687
      5683      5682      5685      5693      5684      5682      5685      5686
      5684      5682      5685      5687      5684      5682      5685      5693
      5685      5687      5688      5689      5685      5687      5688      5690
      5685      5693      5696      5697      5686      5685      5687      5688
      5686      5685      5693      5694      5686      5685      5693      5695
      5686      5685      5693      5696      5687      5685      5693      5694
      5687      5685      5693      5695      5687      5685      5693      5696
      5687      5688      5690      5691      5687      5688      5690      5692
      5687      5688      5690      5702      5688      5687      5685      5693
      5688      5690      5702      5703      5688      5690      5702      5704
      5688      5690      5702      5705      5689      5688      5690      5691
      5689      5688      5690      5692      5689      5688      5690      5702
      5690      5702      5705      5706      5690      5702      5705      5707
      5690      5702      5705      5708      5691      5690      5702      5703
      5691      5690      5702      5704      5691      5690      5702      5705
      5692      5690      5702      5703      5692      5690      5702      5704
      5692      5690      5702      5705      5693      5696      5697      5698
      5693      5696      5697      5699      5694      5693      5696      5697
      5695      5693      5696      5697      5696      5697      5699      5700
      5696      5697      5699      5701      5696      5697      5699      5749
      5697      5699      5749      5750      5697      5699      5749      5751
      5697      5699      5749      5752      5698      5697      5699      5700
      5698      5697      5699      5701      5698      5697      5699      5749
      5699      5749      5752      5753      5699      5749      5752      5754
      5699      5749      5752      5755      5700      5699      5749      5750
      5700      5699      5749      5751      5700      5699      5749      5752
      5701      5699      5749      5750      5701      5699      5749      5751
      5701      5699      5749      5752      5702      5705      5708      5709
      5702      5705      5708      5710      5703      5702      5705      5706
      5703      5702      5705      5707      5703      5702      5705      5708
      5704      5702      5705      5706      5704      5702      5705      5707
      5704      5702      5705      5708      5705      5708      5710      5711
      5705      5708      5710      5712      5706      5705      5708      5709
      5706      5705      5708      5710      5707      5705      5708      5709
      5707      5705      5708      5710      5708      5710      5712      5713
      5708      5710      5712      5714      5708      5710      5712      5715
      5709      5708      5710      5711      5709      5708      5710      5712
      5710      5712      5715      5716      5710      5712      5715      5717
      5711      5710      5712      5713      5711      5710      5712      5714
      5711      5710      5712      5715      5712      5715      5717      5718
      5712      5715      5717      5719      5713      5712      5715      5716
      5713      5712      5715      5717      5714      5712      5715      5716
      5714      5712      5715      5717      5715      5717      5719      5720
      5715      5717      5719      5721      5715      5717      5719      5722
      5716      5715      5717      5718      5716      5715      5717      5719
      5717      5719      5722      5723      5717      5719      5722      5724
      5718      5717      5719      5720      5718      5717      5719      5721
      5718      5717      5719      5722      5719      5722      5724      5725
      5719      5722      5724      5726      5720      5719      5722      5723
      5720      5719      5722      5724      5721      5719      5722      5723
      5721      5719      5722      5724      5722      5724      5726      5727
      5722      5724      5726      5728      5722      5724      5726      5729
      5723      5722      5724      5725      5723      5722      5724      5726
      5724      5726      5729      5730      5724      5726      5729      5731
      5725      5724      5726      5727      5725      5724      5726      5728
      5725      5724      5726      5729      5726      5729      5731      5732
      5726      5729      5731      5733      5727      5726      5729      5730
      5727      5726      5729      5731      5728      5726      5729      5730
      5728      5726      5729      5731      5729      5731      5733      5734
      5729      5731      5733      5735      5729      5731      5733      5736
      5730      5729      5731      5732      5730      5729      5731      5733
      5731      5733      5736      5737      5731      5733      5736      5738
      5731      5733      5736      5739      5732      5731      5733      5734
      5732      5731      5733      5735      5732      5731      5733      5736
      5733      5736      5739      5740      5733      5736      5739      5741
      5733      5736      5739      5742      5734      5733      5736      5737
      5734      5733      5736      5738      5734      5733      5736      5739
      5735      5733      5736      5737      5735      5733      5736      5738
      5735      5733      5736      5739      5736      5739      5742      5743
      5736      5739      5742      5744      5736      5739      5742      5745
      5737      5736      5739      5740      5737      5736      5739      5741
      5737      5736      5739      5742      5738      5736      5739      5740
      5738      5736      5739      5741      5738      5736      5739      5742
      5739      5742      5745      5746      5739      5742      5745      5747
      5739      5742      5745      5748      5740      5739      5742      5743
      5740      5739      5742      5744      5740      5739      5742      5745
      5741      5739      5742      5743      5741      5739      5742      5744
      5741      5739      5742      5745      5743      5742      5745      5746
      5743      5742      5745      5747      5743      5742      5745      5748
      5744      5742      5745      5746      5744      5742      5745      5747
      5744      5742      5745      5748      5749      5752      5755      5756
      5749      5752      5755      5757      5749      5752      5755      5758
      5750      5749      5752      5753      5750      5749      5752      5754
      5750      5749      5752      5755      5751      5749      5752      5753
      5751      5749      5752      5754      5751      5749      5752      5755
      5752      5755      5758      5759      5752      5755      5758      5760
      5752      5755      5758      5761      5753      5752      5755      5756
      5753      5752      5755      5757      5753      5752      5755      5758
      5754      5752      5755      5756      5754      5752      5755      5757
      5754      5752      5755      5758      5755      5758      5761      5762
      5755      5758      5761      5763      5755      5758      5761      5764
      5756      5755      5758      5759      5756      5755      5758      5760
      5756      5755      5758      5761      5757      5755      5758      5759
      5757      5755      5758      5760      5757      5755      5758      5761
      5758      5761      5764      5765      5758      5761      5764      5766
      5758      5761      5764      5767      5759      5758      5761      5762
      5759      5758      5761      5763      5759      5758      5761      5764
      5760      5758      5761      5762      5760      5758      5761      5763
      5760      5758      5761      5764      5761      5764      5767      5768
      5761      5764      5767      5769      5761      5764      5767      5770
      5762      5761      5764      5765      5762      5761      5764      5766
      5762      5761      5764      5767      5763      5761      5764      5765
      5763      5761      5764      5766      5763      5761      5764      5767
      5764      5767      5770      5771      5764      5767      5770      5772
      5764      5767      5770      5773      5765      5764      5767      5768
      5765      5764      5767      5769      5765      5764      5767      5770
      5766      5764      5767      5768      5766      5764      5767      5769
      5766      5764      5767      5770      5767      5770      5773      5774
      5767      5770      5773      5775      5767      5770      5773      5776
      5768      5767      5770      5771      5768      5767      5770      5772
      5768      5767      5770      5773      5769      5767      5770      5771
      5769      5767      5770      5772      5769      5767      5770      5773
      5770      5773      5776      5777      5770      5773      5776      5778
      5770      5773      5776      5779      5771      5770      5773      5774
      5771      5770      5773      5775      5771      5770      5773      5776
      5772      5770      5773      5774      5772      5770      5773      5775
      5772      5770      5773      5776      5773      5776      5779      5780
      5773      5776      5779      5781      5773      5776      5779      5782
      5774      5773      5776      5777      5774      5773      5776      5778
      5774      5773      5776      5779      5775      5773      5776      5777
      5775      5773      5776      5778      5775      5773      5776      5779
      5776      5779      5782      5783      5776      5779      5782      5784
      5776      5779      5782      5785      5777      5776      5779      5780
      5777      5776      5779      5781      5777      5776      5779      5782
      5778      5776      5779      5780      5778      5776      5779      5781
      5778      5776      5779      5782      5779      5782      5785      5786
      5779      5782      5785      5787      5779      5782      5785      5788
      5780      5779      5782      5783      5780      5779      5782      5784
      5780      5779      5782      5785      5781      5779      5782      5783
      5781      5779      5782      5784      5781      5779      5782      5785
      5782      5785      5788      5789      5782      5785      5788      5790
      5782      5785      5788      5791      5783      5782      5785      5786
      5783      5782      5785      5787      5783      5782      5785      5788
      5784      5782      5785      5786      5784      5782      5785      5787
      5784      5782      5785      5788      5785      5788      5791      5792
      5785      5788      5791      5793      5785      5788      5791      5794
      5786      5785      5788      5789      5786      5785      5788      5790
      5786      5785      5788      5791      5787      5785      5788      5789
      5787      5785      5788      5790      5787      5785      5788      5791
      5788      5791      5794      5795      5788      5791      5794      5796
      5788      5791      5794      5797      5789      5788      5791      5792
      5789      5788      5791      5793      5789      5788      5791      5794
      5790      5788      5791      5792      5790      5788      5791      5793
      5790      5788      5791      5794      5792      5791      5794      5795
      5792      5791      5794      5796      5792      5791      5794      5797
      5793      5791      5794      5795      5793      5791      5794      5796
      5793      5791      5794      5797      5798      5802      5805      5806
      5798      5802      5805      5836      5798      5844      5841      5836
      5798      5844      5841      5842      5798      5844      5841      5843
      5799      5798      5800      5801      5799      5798      5802      5803
      5799      5798      5802      5804      5799      5798      5802      5805
      5799      5798      5844      5841      5799      5798      5844      5845
      5799      5798      5844      5846      5800      5798      5802      5803
      5800      5798      5802      5804      5800      5798      5802      5805
      5800      5798      5844      5841      5800      5798      5844      5845
      5800      5798      5844      5846      5801      5800      5798      5802
      5801      5800      5798      5844      5802      5798      5844      5841
      5802      5798      5844      5845      5802      5798      5844      5846
      5802      5805      5806      5807      5802      5805      5806      5808
      5802      5805      5836      5834      5802      5805      5836      5837
      5802      5805      5836      5841      5803      5802      5798      5844
      5803      5802      5805      5806      5803      5802      5805      5836
      5804      5802      5798      5844      5804      5802      5805      5806
      5804      5802      5805      5836      5805      5802      5798      5844
      5805      5806      5808      5809      5805      5806      5808      5810
      5805      5806      5808      5811      5805      5836      5834      5811
      5805      5836      5834      5831      5805      5836      5834      5835
      5805      5836      5837      5838      5805      5836      5837      5839
      5805      5836      5837      5840      5805      5836      5841      5842
      5805      5836      5841      5843      5805      5836      5841      5844
      5806      5805      5836      5834      5806      5805      5836      5837
      5806      5805      5836      5841      5806      5808      5811      5812
      5806      5808      5811      5813      5806      5808      5811      5834
      5807      5806      5805      5836      5807      5806      5808      5809
      5807      5806      5808      5810      5807      5806      5808      5811
      5808      5806      5805      5836      5808      5811      5813      5814
      5808      5811      5813      5815      5808      5811      5813      5823
      5808      5811      5834      5831      5808      5811      5834      5835
      5808      5811      5834      5836      5809      5808      5811      5812
      5809      5808      5811      5813      5809      5808      5811      5834
      5810      5808      5811      5812      5810      5808      5811      5813
      5810      5808      5811      5834      5811      5813      5815      5816
      5811      5813      5815      5817      5811      5813      5815      5818
      5811      5813      5823      5821      5811      5813      5823      5824
      5811      5813      5823      5828      5811      5834      5831      5828
      5811      5834      5831      5832      5811      5834      5831      5833
      5811      5834      5836      5837      5811      5834      5836      5841
      5812      5811      5813      5814      5812      5811      5813      5815
      5812      5811      5813      5823      5812      5811      5834      5831
      5812      5811      5834      5835      5812      5811      5834      5836
      5813      5811      5834      5831      5813      5811      5834      5835
      5813      5811      5834      5836      5813      5815      5818      5819
      5813      5815      5818      5820      5813      5815      5818      5821
      5813      5823      5821      5818      5813      5823      5821      5822
      5813      5823      5821      5847      5813      5823      5824      5825
      5813      5823      5824      5826      5813      5823      5824      5827
      5813      5823      5828      5829      5813      5823      5828      5830
      5813      5823      5828      5831      5814      5813      5811      5834
      5814      5813      5815      5816      5814      5813      5815      5817
      5814      5813      5815      5818      5814      5813      5823      5821
      5814      5813      5823      5824      5814      5813      5823      5828
      5815      5813      5811      5834      5815      5813      5823      5821
      5815      5813      5823      5824      5815      5813      5823      5828
      5815      5818      5821      5822      5815      5818      5821      5823
      5815      5818      5821      5847      5816      5815      5813      5823
      5816      5815      5818      5819      5816      5815      5818      5820
      5816      5815      5818      5821      5817      5815      5813      5823
      5817      5815      5818      5819      5817      5815      5818      5820
      5817      5815      5818      5821      5818      5815      5813      5823
      5818      5821      5823      5824      5818      5821      5823      5828
      5818      5821      5847      5848      5818      5821      5847      5849
      5818      5821      5847      5853      5819      5818      5821      5822
      5819      5818      5821      5823      5819      5818      5821      5847
      5820      5818      5821      5822      5820      5818      5821      5823
      5820      5818      5821      5847      5821      5823      5824      5825
      5821      5823      5824      5826      5821      5823      5824      5827
      5821      5823      5828      5829      5821      5823      5828      5830
      5821      5823      5828      5831      5821      5847      5849      5850
      5821      5847      5849      5851      5821      5847      5849      5852
      5821      5847      5853      5854      5821      5847      5853      5855
      5821      5847      5853      5856      5822      5821      5823      5824
      5822      5821      5823      5828      5822      5821      5847      5848
      5822      5821      5847      5849      5822      5821      5847      5853
      5823      5813      5811      5834      5823      5821      5847      5848
      5823      5821      5847      5849      5823      5821      5847      5853
      5823      5828      5831      5832      5823      5828      5831      5833
      5823      5828      5831      5834      5824      5823      5821      5847
      5824      5823      5828      5829      5824      5823      5828      5830
      5824      5823      5828      5831      5825      5824      5823      5828
      5826      5824      5823      5828      5827      5824      5823      5828
      5828      5823      5821      5847      5828      5831      5834      5835
      5828      5831      5834      5836      5829      5828      5831      5832
      5829      5828      5831      5833      5829      5828      5831      5834
      5830      5828      5831      5832      5830      5828      5831      5833
      5830      5828      5831      5834      5831      5834      5836      5837
      5831      5834      5836      5841      5832      5831      5834      5835
      5832      5831      5834      5836      5833      5831      5834      5835
      5833      5831      5834      5836      5834      5836      5837      5838
      5834      5836      5837      5839      5834      5836      5837      5840
      5834      5836      5841      5842      5834      5836      5841      5843
      5834      5836      5841      5844      5835      5834      5836      5837
      5835      5834      5836      5841      5836      5841      5844      5845
      5836      5841      5844      5846      5837      5836      5841      5842
      5837      5836      5841      5843      5837      5836      5841      5844
      5838      5837      5836      5841      5839      5837      5836      5841
      5840      5837      5836      5841      5842      5841      5844      5845
      5842      5841      5844      5846      5843      5841      5844      5845
      5843      5841      5844      5846      5847      5853      5856      5857
      5847      5853      5856      5858      5847      5853      5856      5859
      5848      5847      5849      5850      5848      5847      5849      5851
      5848      5847      5849      5852      5848      5847      5853      5854
      5848      5847      5853      5855      5848      5847      5853      5856
      5849      5847      5853      5854      5849      5847      5853      5855
      5849      5847      5853      5856      5850      5849      5847      5853
      5851      5849      5847      5853      5852      5849      5847      5853
      5853      5856      5859      5860      5853      5856      5859      5861
      5853      5856      5859      5862      5854      5853      5856      5857
      5854      5853      5856      5858      5854      5853      5856      5859
      5855      5853      5856      5857      5855      5853      5856      5858
      5855      5853      5856      5859      5856      5859      5862      5863
      5856      5859      5862      5864      5856      5859      5862      5868
      5857      5856      5859      5860      5857      5856      5859      5861
      5857      5856      5859      5862      5858      5856      5859      5860
      5858      5856      5859      5861      5858      5856      5859      5862
      5859      5862      5864      5865      5859      5862      5864      5866
      5859      5862      5864      5867      5859      5862      5868      5869
      5859      5862      5868      5870      5859      5862      5868      5871
      5860      5859      5862      5863      5860      5859      5862      5864
      5860      5859      5862      5868      5861      5859      5862      5863
      5861      5859      5862      5864      5861      5859      5862      5868
      5863      5862      5864      5865      5863      5862      5864      5866
      5863      5862      5864      5867      5863      5862      5868      5869
      5863      5862      5868      5870      5863      5862      5868      5871
      5864      5862      5868      5869      5864      5862      5868      5870
      5864      5862      5868      5871      5865      5864      5862      5868
      5866      5864      5862      5868      5867      5864      5862      5868
      5872      5876      5878      5879      5872      5876      5878      5880
      5872      5876      5881      5882      5872      5876      5881      5883
      5872      5876      5881      5887      5873      5872      5876      5877
      5873      5872      5876      5878      5873      5872      5876      5881
      5874      5872      5876      5877      5874      5872      5876      5878
      5874      5872      5876      5881      5875      5872      5876      5877
      5875      5872      5876      5878      5875      5872      5876      5881
      5876      5881      5887      5884      5877      5876      5878      5879
      5877      5876      5878      5880      5877      5876      5881      5882
      5877      5876      5881      5883      5877      5876      5881      5887
      5878      5876      5881      5882      5878      5876      5881      5883
      5878      5876      5881      5887      5879      5878      5876      5881
      5880      5878      5876      5881      5881      5887      5884      5885
      5881      5887      5884      5886      5881      5887      5884      5888
      5882      5881      5887      5884      5883      5881      5887      5884
      5884      5888      5889      5890      5884      5888      5889      5891
      5884      5888      5889      5892      5885      5884      5888      5889
      5886      5884      5888      5889      5887      5884      5888      5889
      5888      5889      5892      5893      5888      5889      5892      5894
      5888      5889      5892      5900      5889      5892      5894      5895
      5889      5892      5900      5901      5889      5892      5900      5902
      5889      5892      5900      5903      5890      5889      5892      5893
      5890      5889      5892      5894      5890      5889      5892      5900
      5891      5889      5892      5893      5891      5889      5892      5894
      5891      5889      5892      5900      5892      5894      5895      5896
      5892      5894      5895      5897      5892      5900      5903      5904
      5893      5892      5894      5895      5893      5892      5900      5901
      5893      5892      5900      5902      5893      5892      5900      5903
      5894      5892      5900      5901      5894      5892      5900      5902
      5894      5892      5900      5903      5894      5895      5897      5898
      5894      5895      5897      5899      5894      5895      5897      5909
      5895      5894      5892      5900      5895      5897      5909      5910
      5895      5897      5909      5911      5895      5897      5909      5912
      5896      5895      5897      5898      5896      5895      5897      5899
      5896      5895      5897      5909      5897      5909      5912      5913
      5897      5909      5912      5914      5897      5909      5912      5915
      5898      5897      5909      5910      5898      5897      5909      5911
      5898      5897      5909      5912      5899      5897      5909      5910
      5899      5897      5909      5911      5899      5897      5909      5912
      5900      5903      5904      5905      5900      5903      5904      5906
      5901      5900      5903      5904      5902      5900      5903      5904
      5903      5904      5906      5907      5903      5904      5906      5908
      5903      5904      5906      5956      5904      5906      5956      5957
      5904      5906      5956      5958      5904      5906      5956      5959
      5905      5904      5906      5907      5905      5904      5906      5908
      5905      5904      5906      5956      5906      5956      5959      5960
      5906      5956      5959      5961      5906      5956      5959      5962
      5907      5906      5956      5957      5907      5906      5956      5958
      5907      5906      5956      5959      5908      5906      5956      5957
      5908      5906      5956      5958      5908      5906      5956      5959
      5909      5912      5915      5916      5909      5912      5915      5917
      5910      5909      5912      5913      5910      5909      5912      5914
      5910      5909      5912      5915      5911      5909      5912      5913
      5911      5909      5912      5914      5911      5909      5912      5915
      5912      5915      5917      5918      5912      5915      5917      5919
      5913      5912      5915      5916      5913      5912      5915      5917
      5914      5912      5915      5916      5914      5912      5915      5917
      5915      5917      5919      5920      5915      5917      5919      5921
      5915      5917      5919      5922      5916      5915      5917      5918
      5916      5915      5917      5919      5917      5919      5922      5923
      5917      5919      5922      5924      5918      5917      5919      5920
      5918      5917      5919      5921      5918      5917      5919      5922
      5919      5922      5924      5925      5919      5922      5924      5926
      5920      5919      5922      5923      5920      5919      5922      5924
      5921      5919      5922      5923      5921      5919      5922      5924
      5922      5924      5926      5927      5922      5924      5926      5928
      5922      5924      5926      5929      5923      5922      5924      5925
      5923      5922      5924      5926      5924      5926      5929      5930
      5924      5926      5929      5931      5925      5924      5926      5927
      5925      5924      5926      5928      5925      5924      5926      5929
      5926      5929      5931      5932      5926      5929      5931      5933
      5927      5926      5929      5930      5927      5926      5929      5931
      5928      5926      5929      5930      5928      5926      5929      5931
      5929      5931      5933      5934      5929      5931      5933      5935
      5929      5931      5933      5936      5930      5929      5931      5932
      5930      5929      5931      5933      5931      5933      5936      5937
      5931      5933      5936      5938      5932      5931      5933      5934
      5932      5931      5933      5935      5932      5931      5933      5936
      5933      5936      5938      5939      5933      5936      5938      5940
      5934      5933      5936      5937      5934      5933      5936      5938
      5935      5933      5936      5937      5935      5933      5936      5938
      5936      5938      5940      5941      5936      5938      5940      5942
      5936      5938      5940      5943      5937      5936      5938      5939
      5937      5936      5938      5940      5938      5940      5943      5944
      5938      5940      5943      5945      5938      5940      5943      5946
      5939      5938      5940      5941      5939      5938      5940      5942
      5939      5938      5940      5943      5940      5943      5946      5947
      5940      5943      5946      5948      5940      5943      5946      5949
      5941      5940      5943      5944      5941      5940      5943      5945
      5941      5940      5943      5946      5942      5940      5943      5944
      5942      5940      5943      5945      5942      5940      5943      5946
      5943      5946      5949      5950      5943      5946      5949      5951
      5943      5946      5949      5952      5944      5943      5946      5947
      5944      5943      5946      5948      5944      5943      5946      5949
      5945      5943      5946      5947      5945      5943      5946      5948
      5945      5943      5946      5949      5946      5949      5952      5953
      5946      5949      5952      5954      5946      5949      5952      5955
      5947      5946      5949      5950      5947      5946      5949      5951
      5947      5946      5949      5952      5948      5946      5949      5950
      5948      5946      5949      5951      5948      5946      5949      5952
      5950      5949      5952      5953      5950      5949      5952      5954
      5950      5949      5952      5955      5951      5949      5952      5953
      5951      5949      5952      5954      5951      5949      5952      5955
      5956      5959      5962      5963      5956      5959      5962      5964
      5956      5959      5962      5965      5957      5956      5959      5960
      5957      5956      5959      5961      5957      5956      5959      5962
      5958      5956      5959      5960      5958      5956      5959      5961
      5958      5956      5959      5962      5959      5962      5965      5966
      5959      5962      5965      5967      5959      5962      5965      5968
      5960      5959      5962      5963      5960      5959      5962      5964
      5960      5959      5962      5965      5961      5959      5962      5963
      5961      5959      5962      5964      5961      5959      5962      5965
      5962      5965      5968      5969      5962      5965      5968      5970
      5962      5965      5968      5971      5963      5962      5965      5966
      5963      5962      5965      5967      5963      5962      5965      5968
      5964      5962      5965      5966      5964      5962      5965      5967
      5964      5962      5965      5968      5965      5968      5971      5972
      5965      5968      5971      5973      5965      5968      5971      5974
      5966      5965      5968      5969      5966      5965      5968      5970
      5966      5965      5968      5971      5967      5965      5968      5969
      5967      5965      5968      5970      5967      5965      5968      5971
      5968      5971      5974      5975      5968      5971      5974      5976
      5968      5971      5974      5977      5969      5968      5971      5972
      5969      5968      5971      5973      5969      5968      5971      5974
      5970      5968      5971      5972      5970      5968      5971      5973
      5970      5968      5971      5974      5971      5974      5977      5978
      5971      5974      5977      5979      5971      5974      5977      5980
      5972      5971      5974      5975      5972      5971      5974      5976
      5972      5971      5974      5977      5973      5971      5974      5975
      5973      5971      5974      5976      5973      5971      5974      5977
      5974      5977      5980      5981      5974      5977      5980      5982
      5974      5977      5980      5983      5975      5974      5977      5978
      5975      5974      5977      5979      5975      5974      5977      5980
      5976      5974      5977      5978      5976      5974      5977      5979
      5976      5974      5977      5980      5977      5980      5983      5984
      5977      5980      5983      5985      5977      5980      5983      5986
      5978      5977      5980      5981      5978      5977      5980      5982
      5978      5977      5980      5983      5979      5977      5980      5981
      5979      5977      5980      5982      5979      5977      5980      5983
      5980      5983      5986      5987      5980      5983      5986      5988
      5980      5983      5986      5989      5981      5980      5983      5984
      5981      5980      5983      5985      5981      5980      5983      5986
      5982      5980      5983      5984      5982      5980      5983      5985
      5982      5980      5983      5986      5983      5986      5989      5990
      5983      5986      5989      5991      5983      5986      5989      5992
      5984      5983      5986      5987      5984      5983      5986      5988
      5984      5983      5986      5989      5985      5983      5986      5987
      5985      5983      5986      5988      5985      5983      5986      5989
      5986      5989      5992      5993      5986      5989      5992      5994
      5986      5989      5992      5995      5987      5986      5989      5990
      5987      5986      5989      5991      5987      5986      5989      5992
      5988      5986      5989      5990      5988      5986      5989      5991
      5988      5986      5989      5992      5989      5992      5995      5996
      5989      5992      5995      5997      5989      5992      5995      5998
      5990      5989      5992      5993      5990      5989      5992      5994
      5990      5989      5992      5995      5991      5989      5992      5993
      5991      5989      5992      5994      5991      5989      5992      5995
      5992      5995      5998      5999      5992      5995      5998      6000
      5992      5995      5998      6001      5993      5992      5995      5996
      5993      5992      5995      5997      5993      5992      5995      5998
      5994      5992      5995      5996      5994      5992      5995      5997
      5994      5992      5995      5998      5995      5998      6001      6002
      5995      5998      6001      6003      5995      5998      6001      6004
      5996      5995      5998      5999      5996      5995      5998      6000
      5996      5995      5998      6001      5997      5995      5998      5999
      5997      5995      5998      6000      5997      5995      5998      6001
      5999      5998      6001      6002      5999      5998      6001      6003
      5999      5998      6001      6004      6000      5998      6001      6002
      6000      5998      6001      6003      6000      5998      6001      6004
      6005      6009      6012      6013      6005      6009      6012      6043
      6005      6051      6048      6043      6005      6051      6048      6049
      6005      6051      6048      6050      6006      6005      6007      6008
      6006      6005      6009      6010      6006      6005      6009      6011
      6006      6005      6009      6012      6006      6005      6051      6048
      6006      6005      6051      6052      6006      6005      6051      6053
      6007      6005      6009      6010      6007      6005      6009      6011
      6007      6005      6009      6012      6007      6005      6051      6048
      6007      6005      6051      6052      6007      6005      6051      6053
      6008      6007      6005      6009      6008      6007      6005      6051
      6009      6005      6051      6048      6009      6005      6051      6052
      6009      6005      6051      6053      6009      6012      6013      6014
      6009      6012      6013      6015      6009      6012      6043      6041
      6009      6012      6043      6044      6009      6012      6043      6048
      6010      6009      6005      6051      6010      6009      6012      6013
      6010      6009      6012      6043      6011      6009      6005      6051
      6011      6009      6012      6013      6011      6009      6012      6043
      6012      6009      6005      6051      6012      6013      6015      6016
      6012      6013      6015      6017      6012      6013      6015      6018
      6012      6043      6041      6018      6012      6043      6041      6038
      6012      6043      6041      6042      6012      6043      6044      6045
      6012      6043      6044      6046      6012      6043      6044      6047
      6012      6043      6048      6049      6012      6043      6048      6050
      6012      6043      6048      6051      6013      6012      6043      6041
      6013      6012      6043      6044      6013      6012      6043      6048
      6013      6015      6018      6019      6013      6015      6018      6020
      6013      6015      6018      6041      6014      6013      6012      6043
      6014      6013      6015      6016      6014      6013      6015      6017
      6014      6013      6015      6018      6015      6013      6012      6043
      6015      6018      6020      6021      6015      6018      6020      6022
      6015      6018      6020      6030      6015      6018      6041      6038
      6015      6018      6041      6042      6015      6018      6041      6043
      6016      6015      6018      6019      6016      6015      6018      6020
      6016      6015      6018      6041      6017      6015      6018      6019
      6017      6015      6018      6020      6017      6015      6018      6041
      6018      6020      6022      6023      6018      6020      6022      6024
      6018      6020      6022      6025      6018      6020      6030      6028
      6018      6020      6030      6031      6018      6020      6030      6035
      6018      6041      6038      6035      6018      6041      6038      6039
      6018      6041      6038      6040      6018      6041      6043      6044
      6018      6041      6043      6048      6019      6018      6020      6021
      6019      6018      6020      6022      6019      6018      6020      6030
      6019      6018      6041      6038      6019      6018      6041      6042
      6019      6018      6041      6043      6020      6018      6041      6038
      6020      6018      6041      6042      6020      6018      6041      6043
      6020      6022      6025      6026      6020      6022      6025      6027
      6020      6022      6025      6028      6020      6030      6028      6025
      6020      6030      6028      6029      6020      6030      6028      6054
      6020      6030      6031      6032      6020      6030      6031      6033
      6020      6030      6031      6034      6020      6030      6035      6036
      6020      6030      6035      6037      6020      6030      6035      6038
      6021      6020      6018      6041      6021      6020      6022      6023
      6021      6020      6022      6024      6021      6020      6022      6025
      6021      6020      6030      6028      6021      6020      6030      6031
      6021      6020      6030      6035      6022      6020      6018      6041
      6022      6020      6030      6028      6022      6020      6030      6031
      6022      6020      6030      6035      6022      6025      6028      6029
      6022      6025      6028      6030      6022      6025      6028      6054
      6023      6022      6020      6030      6023      6022      6025      6026
      6023      6022      6025      6027      6023      6022      6025      6028
      6024      6022      6020      6030      6024      6022      6025      6026
      6024      6022      6025      6027      6024      6022      6025      6028
      6025      6022      6020      6030      6025      6028      6030      6031
      6025      6028      6030      6035      6025      6028      6054      6055
      6025      6028      6054      6056      6025      6028      6054      6060
      6026      6025      6028      6029      6026      6025      6028      6030
      6026      6025      6028      6054      6027      6025      6028      6029
      6027      6025      6028      6030      6027      6025      6028      6054
      6028      6030      6031      6032      6028      6030      6031      6033
      6028      6030      6031      6034      6028      6030      6035      6036
      6028      6030      6035      6037      6028      6030      6035      6038
      6028      6054      6056      6057      6028      6054      6056      6058
      6028      6054      6056      6059      6028      6054      6060      6061
      6028      6054      6060      6062      6028      6054      6060      6063
      6029      6028      6030      6031      6029      6028      6030      6035
      6029      6028      6054      6055      6029      6028      6054      6056
      6029      6028      6054      6060      6030      6020      6018      6041
      6030      6028      6054      6055      6030      6028      6054      6056
      6030      6028      6054      6060      6030      6035      6038      6039
      6030      6035      6038      6040      6030      6035      6038      6041
      6031      6030      6028      6054      6031      6030      6035      6036
      6031      6030      6035      6037      6031      6030      6035      6038
      6032      6031      6030      6035      6033      6031      6030      6035
      6034      6031      6030      6035      6035      6030      6028      6054
      6035      6038      6041      6042      6035      6038      6041      6043
      6036      6035      6038      6039      6036      6035      6038      6040
      6036      6035      6038      6041      6037      6035      6038      6039
      6037      6035      6038      6040      6037      6035      6038      6041
      6038      6041      6043      6044      6038      6041      6043      6048
      6039      6038      6041      6042      6039      6038      6041      6043
      6040      6038      6041      6042      6040      6038      6041      6043
      6041      6043      6044      6045      6041      6043      6044      6046
      6041      6043      6044      6047      6041      6043      6048      6049
      6041      6043      6048      6050      6041      6043      6048      6051
      6042      6041      6043      6044      6042      6041      6043      6048
      6043      6048      6051      6052      6043      6048      6051      6053
      6044      6043      6048      6049      6044      6043      6048      6050
      6044      6043      6048      6051      6045      6044      6043      6048
      6046      6044      6043      6048      6047      6044      6043      6048
      6049      6048      6051      6052      6049      6048      6051      6053
      6050      6048      6051      6052      6050      6048      6051      6053
      6054      6060      6063      6064      6054      6060      6063      6065
      6054      6060      6063      6066      6055      6054      6056      6057
      6055      6054      6056      6058      6055      6054      6056      6059
      6055      6054      6060      6061      6055      6054      6060      6062
      6055      6054      6060      6063      6056      6054      6060      6061
      6056      6054      6060      6062      6056      6054      6060      6063
      6057      6056      6054      6060      6058      6056      6054      6060
      6059      6056      6054      6060      6060      6063      6066      6067
      6060      6063      6066      6068      6060      6063      6066      6069
      6061      6060      6063      6064      6061      6060      6063      6065
      6061      6060      6063      6066      6062      6060      6063      6064
      6062      6060      6063      6065      6062      6060      6063      6066
      6063      6066      6069      6070      6063      6066      6069      6071
      6063      6066      6069      6075      6064      6063      6066      6067
      6064      6063      6066      6068      6064      6063      6066      6069
      6065      6063      6066      6067      6065      6063      6066      6068
      6065      6063      6066      6069      6066      6069      6071      6072
      6066      6069      6071      6073      6066      6069      6071      6074
      6066      6069      6075      6076      6066      6069      6075      6077
      6066      6069      6075      6078      6067      6066      6069      6070
      6067      6066      6069      6071      6067      6066      6069      6075
      6068      6066      6069      6070      6068      6066      6069      6071
      6068      6066      6069      6075      6070      6069      6071      6072
      6070      6069      6071      6073      6070      6069      6071      6074
      6070      6069      6075      6076      6070      6069      6075      6077
      6070      6069      6075      6078      6071      6069      6075      6076
      6071      6069      6075      6077      6071      6069      6075      6078
      6072      6071      6069      6075      6073      6071      6069      6075
      6074      6071      6069      6075      6079      6083      6086      6087
      6079      6083      6086      6117      6079      6125      6122      6117
      6079      6125      6122      6123      6079      6125      6122      6124
      6080      6079      6081      6082      6080      6079      6083      6084
      6080      6079      6083      6085      6080      6079      6083      6086
      6080      6079      6125      6122      6080      6079      6125      6126
      6080      6079      6125      6127      6081      6079      6083      6084
      6081      6079      6083      6085      6081      6079      6083      6086
      6081      6079      6125      6122      6081      6079      6125      6126
      6081      6079      6125      6127      6082      6081      6079      6083
      6082      6081      6079      6125      6083      6079      6125      6122
      6083      6079      6125      6126      6083      6079      6125      6127
      6083      6086      6087      6088      6083      6086      6087      6089
      6083      6086      6117      6115      6083      6086      6117      6118
      6083      6086      6117      6122      6084      6083      6079      6125
      6084      6083      6086      6087      6084      6083      6086      6117
      6085      6083      6079      6125      6085      6083      6086      6087
      6085      6083      6086      6117      6086      6083      6079      6125
      6086      6087      6089      6090      6086      6087      6089      6091
      6086      6087      6089      6092      6086      6117      6115      6092
      6086      6117      6115      6112      6086      6117      6115      6116
      6086      6117      6118      6119      6086      6117      6118      6120
      6086      6117      6118      6121      6086      6117      6122      6123
      6086      6117      6122      6124      6086      6117      6122      6125
      6087      6086      6117      6115      6087      6086      6117      6118
      6087      6086      6117      6122      6087      6089      6092      6093
      6087      6089      6092      6094      6087      6089      6092      6115
      6088      6087      6086      6117      6088      6087      6089      6090
      6088      6087      6089      6091      6088      6087      6089      6092
      6089      6087      6086      6117      6089      6092      6094      6095
      6089      6092      6094      6096      6089      6092      6094      6104
      6089      6092      6115      6112      6089      6092      6115      6116
      6089      6092      6115      6117      6090      6089      6092      6093
      6090      6089      6092      6094      6090      6089      6092      6115
      6091      6089      6092      6093      6091      6089      6092      6094
      6091      6089      6092      6115      6092      6094      6096      6097
      6092      6094      6096      6098      6092      6094      6096      6099
      6092      6094      6104      6102      6092      6094      6104      6105
      6092      6094      6104      6109      6092      6115      6112      6109
      6092      6115      6112      6113      6092      6115      6112      6114
      6092      6115      6117      6118      6092      6115      6117      6122
      6093      6092      6094      6095      6093      6092      6094      6096
      6093      6092      6094      6104      6093      6092      6115      6112
      6093      6092      6115      6116      6093      6092      6115      6117
      6094      6092      6115      6112      6094      6092      6115      6116
      6094      6092      6115      6117      6094      6096      6099      6100
      6094      6096      6099      6101      6094      6096      6099      6102
      6094      6104      6102      6099      6094      6104      6102      6103
      6094      6104      6102      6128      6094      6104      6105      6106
      6094      6104      6105      6107      6094      6104      6105      6108
      6094      6104      6109      6110      6094      6104      6109      6111
      6094      6104      6109      6112      6095      6094      6092      6115
      6095      6094      6096      6097      6095      6094      6096      6098
      6095      6094      6096      6099      6095      6094      6104      6102
      6095      6094      6104      6105      6095      6094      6104      6109
      6096      6094      6092      6115      6096      6094      6104      6102
      6096      6094      6104      6105      6096      6094      6104      6109
      6096      6099      6102      6103      6096      6099      6102      6104
      6096      6099      6102      6128      6097      6096      6094      6104
      6097      6096      6099      6100      6097      6096      6099      6101
      6097      6096      6099      6102      6098      6096      6094      6104
      6098      6096      6099      6100      6098      6096      6099      6101
      6098      6096      6099      6102      6099      6096      6094      6104
      6099      6102      6104      6105      6099      6102      6104      6109
      6099      6102      6128      6129      6099      6102      6128      6130
      6099      6102      6128      6134      6100      6099      6102      6103
      6100      6099      6102      6104      6100      6099      6102      6128
      6101      6099      6102      6103      6101      6099      6102      6104
      6101      6099      6102      6128      6102      6104      6105      6106
      6102      6104      6105      6107      6102      6104      6105      6108
      6102      6104      6109      6110      6102      6104      6109      6111
      6102      6104      6109      6112      6102      6128      6130      6131
      6102      6128      6130      6132      6102      6128      6130      6133
      6102      6128      6134      6135      6102      6128      6134      6136
      6102      6128      6134      6137      6103      6102      6104      6105
      6103      6102      6104      6109      6103      6102      6128      6129
      6103      6102      6128      6130      6103      6102      6128      6134
      6104      6094      6092      6115      6104      6102      6128      6129
      6104      6102      6128      6130      6104      6102      6128      6134
      6104      6109      6112      6113      6104      6109      6112      6114
      6104      6109      6112      6115      6105      6104      6102      6128
      6105      6104      6109      6110      6105      6104      6109      6111
      6105      6104      6109      6112      6106      6105      6104      6109
      6107      6105      6104      6109      6108      6105      6104      6109
      6109      6104      6102      6128      6109      6112      6115      6116
      6109      6112      6115      6117      6110      6109      6112      6113
      6110      6109      6112      6114      6110      6109      6112      6115
      6111      6109      6112      6113      6111      6109      6112      6114
      6111      6109      6112      6115      6112      6115      6117      6118
      6112      6115      6117      6122      6113      6112      6115      6116
      6113      6112      6115      6117      6114      6112      6115      6116
      6114      6112      6115      6117      6115      6117      6118      6119
      6115      6117      6118      6120      6115      6117      6118      6121
      6115      6117      6122      6123      6115      6117      6122      6124
      6115      6117      6122      6125      6116      6115      6117      6118
      6116      6115      6117      6122      6117      6122      6125      6126
      6117      6122      6125      6127      6118      6117      6122      6123
      6118      6117      6122      6124      6118      6117      6122      6125
      6119      6118      6117      6122      6120      6118      6117      6122
      6121      6118      6117      6122      6123      6122      6125      6126
      6123      6122      6125      6127      6124      6122      6125      6126
      6124      6122      6125      6127      6128      6134      6137      6138
      6128      6134      6137      6139      6128      6134      6137      6140
      6129      6128      6130      6131      6129      6128      6130      6132
      6129      6128      6130      6133      6129      6128      6134      6135
      6129      6128      6134      6136      6129      6128      6134      6137
      6130      6128      6134      6135      6130      6128      6134      6136
      6130      6128      6134      6137      6131      6130      6128      6134
      6132      6130      6128      6134      6133      6130      6128      6134
      6134      6137      6140      6141      6134      6137      6140      6142
      6134      6137      6140      6143      6135      6134      6137      6138
      6135      6134      6137      6139      6135      6134      6137      6140
      6136      6134      6137      6138      6136      6134      6137      6139
      6136      6134      6137      6140      6137      6140      6143      6144
      6137      6140      6143      6145      6137      6140      6143      6149
      6138      6137      6140      6141      6138      6137      6140      6142
      6138      6137      6140      6143      6139      6137      6140      6141
      6139      6137      6140      6142      6139      6137      6140      6143
      6140      6143      6145      6146      6140      6143      6145      6147
      6140      6143      6145      6148      6140      6143      6149      6150
      6140      6143      6149      6151      6140      6143      6149      6152
      6141      6140      6143      6144      6141      6140      6143      6145
      6141      6140      6143      6149      6142      6140      6143      6144
      6142      6140      6143      6145      6142      6140      6143      6149
      6144      6143      6145      6146      6144      6143      6145      6147
      6144      6143      6145      6148      6144      6143      6149      6150
      6144      6143      6149      6151      6144      6143      6149      6152
      6145      6143      6149      6150      6145      6143      6149      6151
      6145      6143      6149      6152      6146      6145      6143      6149
      6147      6145      6143      6149      6148      6145      6143      6149
      6153      6157      6160      6161      6153      6157      6160      6162
      6153      6157      6160      6166      6154      6153      6157      6158
      6154      6153      6157      6159      6154      6153      6157      6160
      6155      6153      6157      6158      6155      6153      6157      6159
      6155      6153      6157      6160      6156      6153      6157      6158
      6156      6153      6157      6159      6156      6153      6157      6160
      6157      6160      6166      6163      6158      6157      6160      6161
      6158      6157      6160      6162      6158      6157      6160      6166
      6159      6157      6160      6161      6159      6157      6160      6162
      6159      6157      6160      6166      6160      6166      6163      6164
      6160      6166      6163      6165      6160      6166      6163      6167
      6161      6160      6166      6163      6162      6160      6166      6163
      6163      6167      6168      6169      6163      6167      6168      6170
      6163      6167      6168      6171      6164      6163      6167      6168
      6165      6163      6167      6168      6166      6163      6167      6168
      6167      6168      6171      6172      6167      6168      6171      6173
      6167      6168      6171      6179      6168      6171      6173      6174
      6168      6171      6179      6180      6168      6171      6179      6181
      6168      6171      6179      6182      6169      6168      6171      6172
      6169      6168      6171      6173      6169      6168      6171      6179
      6170      6168      6171      6172      6170      6168      6171      6173
      6170      6168      6171      6179      6171      6173      6174      6175
      6171      6173      6174      6176      6171      6179      6182      6183
      6172      6171      6173      6174      6172      6171      6179      6180
      6172      6171      6179      6181      6172      6171      6179      6182
      6173      6171      6179      6180      6173      6171      6179      6181
      6173      6171      6179      6182      6173      6174      6176      6177
      6173      6174      6176      6178      6173      6174      6176      6188
      6174      6173      6171      6179      6174      6176      6188      6189
      6174      6176      6188      6190      6174      6176      6188      6191
      6175      6174      6176      6177      6175      6174      6176      6178
      6175      6174      6176      6188      6176      6188      6191      6192
      6176      6188      6191      6193      6176      6188      6191      6194
      6177      6176      6188      6189      6177      6176      6188      6190
      6177      6176      6188      6191      6178      6176      6188      6189
      6178      6176      6188      6190      6178      6176      6188      6191
      6179      6182      6183      6184      6179      6182      6183      6185
      6180      6179      6182      6183      6181      6179      6182      6183
      6182      6183      6185      6186      6182      6183      6185      6187
      6182      6183      6185      6235      6183      6185      6235      6236
      6183      6185      6235      6237      6183      6185      6235      6238
      6184      6183      6185      6186      6184      6183      6185      6187
      6184      6183      6185      6235      6185      6235      6238      6239
      6185      6235      6238      6240      6185      6235      6238      6241
      6186      6185      6235      6236      6186      6185      6235      6237
      6186      6185      6235      6238      6187      6185      6235      6236
      6187      6185      6235      6237      6187      6185      6235      6238
      6188      6191      6194      6195      6188      6191      6194      6196
      6189      6188      6191      6192      6189      6188      6191      6193
      6189      6188      6191      6194      6190      6188      6191      6192
      6190      6188      6191      6193      6190      6188      6191      6194
      6191      6194      6196      6197      6191      6194      6196      6198
      6192      6191      6194      6195      6192      6191      6194      6196
      6193      6191      6194      6195      6193      6191      6194      6196
      6194      6196      6198      6199      6194      6196      6198      6200
      6194      6196      6198      6201      6195      6194      6196      6197
      6195      6194      6196      6198      6196      6198      6201      6202
      6196      6198      6201      6203      6197      6196      6198      6199
      6197      6196      6198      6200      6197      6196      6198      6201
      6198      6201      6203      6204      6198      6201      6203      6205
      6199      6198      6201      6202      6199      6198      6201      6203
      6200      6198      6201      6202      6200      6198      6201      6203
      6201      6203      6205      6206      6201      6203      6205      6207
      6201      6203      6205      6208      6202      6201      6203      6204
      6202      6201      6203      6205      6203      6205      6208      6209
      6203      6205      6208      6210      6204      6203      6205      6206
      6204      6203      6205      6207      6204      6203      6205      6208
      6205      6208      6210      6211      6205      6208      6210      6212
      6206      6205      6208      6209      6206      6205      6208      6210
      6207      6205      6208      6209      6207      6205      6208      6210
      6208      6210      6212      6213      6208      6210      6212      6214
      6208      6210      6212      6215      6209      6208      6210      6211
      6209      6208      6210      6212      6210      6212      6215      6216
      6210      6212      6215      6217      6211      6210      6212      6213
      6211      6210      6212      6214      6211      6210      6212      6215
      6212      6215      6217      6218      6212      6215      6217      6219
      6213      6212      6215      6216      6213      6212      6215      6217
      6214      6212      6215      6216      6214      6212      6215      6217
      6215      6217      6219      6220      6215      6217      6219      6221
      6215      6217      6219      6222      6216      6215      6217      6218
      6216      6215      6217      6219      6217      6219      6222      6223
      6217      6219      6222      6224      6217      6219      6222      6225
      6218      6217      6219      6220      6218      6217      6219      6221
      6218      6217      6219      6222      6219      6222      6225      6226
      6219      6222      6225      6227      6219      6222      6225      6228
      6220      6219      6222      6223      6220      6219      6222      6224
      6220      6219      6222      6225      6221      6219      6222      6223
      6221      6219      6222      6224      6221      6219      6222      6225
      6222      6225      6228      6229      6222      6225      6228      6230
      6222      6225      6228      6231      6223      6222      6225      6226
      6223      6222      6225      6227      6223      6222      6225      6228
      6224      6222      6225      6226      6224      6222      6225      6227
      6224      6222      6225      6228      6225      6228      6231      6232
      6225      6228      6231      6233      6225      6228      6231      6234
      6226      6225      6228      6229      6226      6225      6228      6230
      6226      6225      6228      6231      6227      6225      6228      6229
      6227      6225      6228      6230      6227      6225      6228      6231
      6229      6228      6231      6232      6229      6228      6231      6233
      6229      6228      6231      6234      6230      6228      6231      6232
      6230      6228      6231      6233      6230      6228      6231      6234
      6235      6238      6241      6242      6235      6238      6241      6243
      6235      6238      6241      6244      6236      6235      6238      6239
      6236      6235      6238      6240      6236      6235      6238      6241
      6237      6235      6238      6239      6237      6235      6238      6240
      6237      6235      6238      6241      6238      6241      6244      6245
      6238      6241      6244      6246      6238      6241      6244      6247
      6239      6238      6241      6242      6239      6238      6241      6243
      6239      6238      6241      6244      6240      6238      6241      6242
      6240      6238      6241      6243      6240      6238      6241      6244
      6241      6244      6247      6248      6241      6244      6247      6249
      6241      6244      6247      6250      6242      6241      6244      6245
      6242      6241      6244      6246      6242      6241      6244      6247
      6243      6241      6244      6245      6243      6241      6244      6246
      6243      6241      6244      6247      6244      6247      6250      6251
      6244      6247      6250      6252      6244      6247      6250      6253
      6245      6244      6247      6248      6245      6244      6247      6249
      6245      6244      6247      6250      6246      6244      6247      6248
      6246      6244      6247      6249      6246      6244      6247      6250
      6247      6250      6253      6254      6247      6250      6253      6255
      6247      6250      6253      6256      6248      6247      6250      6251
      6248      6247      6250      6252      6248      6247      6250      6253
      6249      6247      6250      6251      6249      6247      6250      6252
      6249      6247      6250      6253      6250      6253      6256      6257
      6250      6253      6256      6258      6250      6253      6256      6259
      6251      6250      6253      6254      6251      6250      6253      6255
      6251      6250      6253      6256      6252      6250      6253      6254
      6252      6250      6253      6255      6252      6250      6253      6256
      6253      6256      6259      6260      6253      6256      6259      6261
      6253      6256      6259      6262      6254      6253      6256      6257
      6254      6253      6256      6258      6254      6253      6256      6259
      6255      6253      6256      6257      6255      6253      6256      6258
      6255      6253      6256      6259      6256      6259      6262      6263
      6256      6259      6262      6264      6256      6259      6262      6265
      6257      6256      6259      6260      6257      6256      6259      6261
      6257      6256      6259      6262      6258      6256      6259      6260
      6258      6256      6259      6261      6258      6256      6259      6262
      6259      6262      6265      6266      6259      6262      6265      6267
      6259      6262      6265      6268      6260      6259      6262      6263
      6260      6259      6262      6264      6260      6259      6262      6265
      6261      6259      6262      6263      6261      6259      6262      6264
      6261      6259      6262      6265      6262      6265      6268      6269
      6262      6265      6268      6270      6262      6265      6268      6271
      6263      6262      6265      6266      6263      6262      6265      6267
      6263      6262      6265      6268      6264      6262      6265      6266
      6264      6262      6265      6267      6264      6262      6265      6268
      6265      6268      6271      6272      6265      6268      6271      6273
      6265      6268      6271      6274      6266      6265      6268      6269
      6266      6265      6268      6270      6266      6265      6268      6271
      6267      6265      6268      6269      6267      6265      6268      6270
      6267      6265      6268      6271      6268      6271      6274      6275
      6268      6271      6274      6276      6268      6271      6274      6277
      6269      6268      6271      6272      6269      6268      6271      6273
      6269      6268      6271      6274      6270      6268      6271      6272
      6270      6268      6271      6273      6270      6268      6271      6274
      6271      6274      6277      6278      6271      6274      6277      6279
      6271      6274      6277      6280      6272      6271      6274      6275
      6272      6271      6274      6276      6272      6271      6274      6277
      6273      6271      6274      6275      6273      6271      6274      6276
      6273      6271      6274      6277      6274      6277      6280      6281
      6274      6277      6280      6282      6274      6277      6280      6283
      6275      6274      6277      6278      6275      6274      6277      6279
      6275      6274      6277      6280      6276      6274      6277      6278
      6276      6274      6277      6279      6276      6274      6277      6280
      6278      6277      6280      6281      6278      6277      6280      6282
      6278      6277      6280      6283      6279      6277      6280      6281
      6279      6277      6280      6282      6279      6277      6280      6283
      6284      6288      6291      6292      6284      6288      6291      6293
      6284      6288      6291      6297      6285      6284      6288      6289
      6285      6284      6288      6290      6285      6284      6288      6291
      6286      6284      6288      6289      6286      6284      6288      6290
      6286      6284      6288      6291      6287      6284      6288      6289
      6287      6284      6288      6290      6287      6284      6288      6291
      6288      6291      6297      6294      6289      6288      6291      6292
      6289      6288      6291      6293      6289      6288      6291      6297
      6290      6288      6291      6292      6290      6288      6291      6293
      6290      6288      6291      6297      6291      6297      6294      6295
      6291      6297      6294      6296      6291      6297      6294      6298
      6292      6291      6297      6294      6293      6291      6297      6294
      6294      6298      6299      6300      6294      6298      6299      6301
      6294      6298      6299      6302      6295      6294      6298      6299
      6296      6294      6298      6299      6297      6294      6298      6299
      6298      6299      6302      6303      6298      6299      6302      6304
      6298      6299      6302      6310      6299      6302      6304      6305
      6299      6302      6310      6311      6299      6302      6310      6312
      6299      6302      6310      6313      6300      6299      6302      6303
      6300      6299      6302      6304      6300      6299      6302      6310
      6301      6299      6302      6303      6301      6299      6302      6304
      6301      6299      6302      6310      6302      6304      6305      6306
      6302      6304      6305      6307      6302      6310      6313      6314
      6303      6302      6304      6305      6303      6302      6310      6311
      6303      6302      6310      6312      6303      6302      6310      6313
      6304      6302      6310      6311      6304      6302      6310      6312
      6304      6302      6310      6313      6304      6305      6307      6308
      6304      6305      6307      6309      6304      6305      6307      6319
      6305      6304      6302      6310      6305      6307      6319      6320
      6305      6307      6319      6321      6305      6307      6319      6322
      6306      6305      6307      6308      6306      6305      6307      6309
      6306      6305      6307      6319      6307      6319      6322      6323
      6307      6319      6322      6324      6307      6319      6322      6325
      6308      6307      6319      6320      6308      6307      6319      6321
      6308      6307      6319      6322      6309      6307      6319      6320
      6309      6307      6319      6321      6309      6307      6319      6322
      6310      6313      6314      6315      6310      6313      6314      6316
      6311      6310      6313      6314      6312      6310      6313      6314
      6313      6314      6316      6317      6313      6314      6316      6318
      6313      6314      6316      6366      6314      6316      6366      6367
      6314      6316      6366      6368      6314      6316      6366      6369
      6315      6314      6316      6317      6315      6314      6316      6318
      6315      6314      6316      6366      6316      6366      6369      6370
      6316      6366      6369      6371      6316      6366      6369      6372
      6317      6316      6366      6367      6317      6316      6366      6368
      6317      6316      6366      6369      6318      6316      6366      6367
      6318      6316      6366      6368      6318      6316      6366      6369
      6319      6322      6325      6326      6319      6322      6325      6327
      6320      6319      6322      6323      6320      6319      6322      6324
      6320      6319      6322      6325      6321      6319      6322      6323
      6321      6319      6322      6324      6321      6319      6322      6325
      6322      6325      6327      6328      6322      6325      6327      6329
      6323      6322      6325      6326      6323      6322      6325      6327
      6324      6322      6325      6326      6324      6322      6325      6327
      6325      6327      6329      6330      6325      6327      6329      6331
      6325      6327      6329      6332      6326      6325      6327      6328
      6326      6325      6327      6329      6327      6329      6332      6333
      6327      6329      6332      6334      6328      6327      6329      6330
      6328      6327      6329      6331      6328      6327      6329      6332
      6329      6332      6334      6335      6329      6332      6334      6336
      6330      6329      6332      6333      6330      6329      6332      6334
      6331      6329      6332      6333      6331      6329      6332      6334
      6332      6334      6336      6337      6332      6334      6336      6338
      6332      6334      6336      6339      6333      6332      6334      6335
      6333      6332      6334      6336      6334      6336      6339      6340
      6334      6336      6339      6341      6335      6334      6336      6337
      6335      6334      6336      6338      6335      6334      6336      6339
      6336      6339      6341      6342      6336      6339      6341      6343
      6337      6336      6339      6340      6337      6336      6339      6341
      6338      6336      6339      6340      6338      6336      6339      6341
      6339      6341      6343      6344      6339      6341      6343      6345
      6339      6341      6343      6346      6340      6339      6341      6342
      6340      6339      6341      6343      6341      6343      6346      6347
      6341      6343      6346      6348      6342      6341      6343      6344
      6342      6341      6343      6345      6342      6341      6343      6346
      6343      6346      6348      6349      6343      6346      6348      6350
      6344      6343      6346      6347      6344      6343      6346      6348
      6345      6343      6346      6347      6345      6343      6346      6348
      6346      6348      6350      6351      6346      6348      6350      6352
      6346      6348      6350      6353      6347      6346      6348      6349
      6347      6346      6348      6350      6348      6350      6353      6354
      6348      6350      6353      6355      6348      6350      6353      6356
      6349      6348      6350      6351      6349      6348      6350      6352
      6349      6348      6350      6353      6350      6353      6356      6357
      6350      6353      6356      6358      6350      6353      6356      6359
      6351      6350      6353      6354      6351      6350      6353      6355
      6351      6350      6353      6356      6352      6350      6353      6354
      6352      6350      6353      6355      6352      6350      6353      6356
      6353      6356      6359      6360      6353      6356      6359      6361
      6353      6356      6359      6362      6354      6353      6356      6357
      6354      6353      6356      6358      6354      6353      6356      6359
      6355      6353      6356      6357      6355      6353      6356      6358
      6355      6353      6356      6359      6356      6359      6362      6363
      6356      6359      6362      6364      6356      6359      6362      6365
      6357      6356      6359      6360      6357      6356      6359      6361
      6357      6356      6359      6362      6358      6356      6359      6360
      6358      6356      6359      6361      6358      6356      6359      6362
      6360      6359      6362      6363      6360      6359      6362      6364
      6360      6359      6362      6365      6361      6359      6362      6363
      6361      6359      6362      6364      6361      6359      6362      6365
      6366      6369      6372      6373      6366      6369      6372      6374
      6366      6369      6372      6375      6367      6366      6369      6370
      6367      6366      6369      6371      6367      6366      6369      6372
      6368      6366      6369      6370      6368      6366      6369      6371
      6368      6366      6369      6372      6369      6372      6375      6376
      6369      6372      6375      6377      6369      6372      6375      6378
      6370      6369      6372      6373      6370      6369      6372      6374
      6370      6369      6372      6375      6371      6369      6372      6373
      6371      6369      6372      6374      6371      6369      6372      6375
      6372      6375      6378      6379      6372      6375      6378      6380
      6372      6375      6378      6381      6373      6372      6375      6376
      6373      6372      6375      6377      6373      6372      6375      6378
      6374      6372      6375      6376      6374      6372      6375      6377
      6374      6372      6375      6378      6375      6378      6381      6382
      6375      6378      6381      6383      6375      6378      6381      6384
      6376      6375      6378      6379      6376      6375      6378      6380
      6376      6375      6378      6381      6377      6375      6378      6379
      6377      6375      6378      6380      6377      6375      6378      6381
      6378      6381      6384      6385      6378      6381      6384      6386
      6378      6381      6384      6387      6379      6378      6381      6382
      6379      6378      6381      6383      6379      6378      6381      6384
      6380      6378      6381      6382      6380      6378      6381      6383
      6380      6378      6381      6384      6381      6384      6387      6388
      6381      6384      6387      6389      6381      6384      6387      6390
      6382      6381      6384      6385      6382      6381      6384      6386
      6382      6381      6384      6387      6383      6381      6384      6385
      6383      6381      6384      6386      6383      6381      6384      6387
      6384      6387      6390      6391      6384      6387      6390      6392
      6384      6387      6390      6393      6385      6384      6387      6388
      6385      6384      6387      6389      6385      6384      6387      6390
      6386      6384      6387      6388      6386      6384      6387      6389
      6386      6384      6387      6390      6387      6390      6393      6394
      6387      6390      6393      6395      6387      6390      6393      6396
      6388      6387      6390      6391      6388      6387      6390      6392
      6388      6387      6390      6393      6389      6387      6390      6391
      6389      6387      6390      6392      6389      6387      6390      6393
      6390      6393      6396      6397      6390      6393      6396      6398
      6390      6393      6396      6399      6391      6390      6393      6394
      6391      6390      6393      6395      6391      6390      6393      6396
      6392      6390      6393      6394      6392      6390      6393      6395
      6392      6390      6393      6396      6393      6396      6399      6400
      6393      6396      6399      6401      6393      6396      6399      6402
      6394      6393      6396      6397      6394      6393      6396      6398
      6394      6393      6396      6399      6395      6393      6396      6397
      6395      6393      6396      6398      6395      6393      6396      6399
      6396      6399      6402      6403      6396      6399      6402      6404
      6396      6399      6402      6405      6397      6396      6399      6400
      6397      6396      6399      6401      6397      6396      6399      6402
      6398      6396      6399      6400      6398      6396      6399      6401
      6398      6396      6399      6402      6399      6402      6405      6406
      6399      6402      6405      6407      6399      6402      6405      6408
      6400      6399      6402      6403      6400      6399      6402      6404
      6400      6399      6402      6405      6401      6399      6402      6403
      6401      6399      6402      6404      6401      6399      6402      6405
      6402      6405      6408      6409      6402      6405      6408      6410
      6402      6405      6408      6411      6403      6402      6405      6406
      6403      6402      6405      6407      6403      6402      6405      6408
      6404      6402      6405      6406      6404      6402      6405      6407
      6404      6402      6405      6408      6405      6408      6411      6412
      6405      6408      6411      6413      6405      6408      6411      6414
      6406      6405      6408      6409      6406      6405      6408      6410
      6406      6405      6408      6411      6407      6405      6408      6409
      6407      6405      6408      6410      6407      6405      6408      6411
      6409      6408      6411      6412      6409      6408      6411      6413
      6409      6408      6411      6414      6410      6408      6411      6412
      6410      6408      6411      6413      6410      6408      6411      6414
      6415      6428      6431      6432      6415      6428      6431      6433
      6415      6428      6431      6438      6416      6415      6420      6421
      6416      6415      6420      6422      6416      6415      6420      6423
      6416      6415      6424      6425      6416      6415      6424      6426
      6416      6415      6424      6427      6416      6415      6428      6429
      6416      6415      6428      6430      6416      6415      6428      6431
      6417      6416      6415      6420      6417      6416      6415      6424
      6417      6416      6415      6428      6418      6416      6415      6420
      6418      6416      6415      6424      6418      6416      6415      6428
      6419      6416      6415      6420      6419      6416      6415      6424
      6419      6416      6415      6428      6420      6415      6424      6425
      6420      6415      6424      6426      6420      6415      6424      6427
      6420      6415      6428      6429      6420      6415      6428      6430
      6420      6415      6428      6431      6421      6420      6415      6424
      6421      6420      6415      6428      6422      6420      6415      6424
      6422      6420      6415      6428      6423      6420      6415      6424
      6423      6420      6415      6428      6424      6415      6428      6429
      6424      6415      6428      6430      6424      6415      6428      6431
      6425      6424      6415      6428      6426      6424      6415      6428
      6427      6424      6415      6428      6428      6431      6438      6434
      6429      6428      6431      6432      6429      6428      6431      6433
      6429      6428      6431      6438      6430      6428      6431      6432
      6430      6428      6431      6433      6430      6428      6431      6438
      6431      6438      6434      6435      6431      6438      6434      6436
      6431      6438      6434      6437      6432      6431      6438      6434
      6433      6431      6438      6434      6434      6437      6439      6440
      6434      6437      6439      6441      6434      6437      6439      6444
      6435      6434      6437      6439      6436      6434      6437      6439
      6437      6439      6444      6442      6437      6439      6444      6445
      6437      6439      6444      6446      6438      6434      6437      6439
      6439      6444      6442      6443      6439      6444      6442      6494
      6439      6444      6446      6447      6439      6444      6446      6448
      6439      6444      6446      6450      6440      6439      6444      6442
      6440      6439      6444      6445      6440      6439      6444      6446
      6441      6439      6444      6442      6441      6439      6444      6445
      6441      6439      6444      6446      6442      6444      6446      6447
      6442      6444      6446      6448      6442      6444      6446      6450
      6442      6494      6496      6497      6442      6494      6496      6498
      6442      6494      6496      6499      6443      6442      6444      6445
      6443      6442      6444      6446      6443      6442      6494      6495
      6443      6442      6494      6496      6444      6442      6494      6495
      6444      6442      6494      6496      6444      6446      6448      6449
      6444      6446      6450      6451      6444      6446      6450      6452
      6445      6444      6442      6494      6445      6444      6446      6447
      6445      6444      6446      6448      6445      6444      6446      6450
      6446      6444      6442      6494      6446      6450      6452      6453
      6446      6450      6452      6454      6447      6446      6448      6449
      6447      6446      6450      6451      6447      6446      6450      6452
      6448      6446      6450      6451      6448      6446      6450      6452
      6449      6448      6446      6450      6450      6452      6454      6455
      6450      6452      6454      6456      6450      6452      6454      6457
      6451      6450      6452      6453      6451      6450      6452      6454
      6452      6454      6457      6458      6452      6454      6457      6459
      6452      6454      6457      6460      6453      6452      6454      6455
      6453      6452      6454      6456      6453      6452      6454      6457
      6454      6457      6460      6461      6454      6457      6460      6462
      6454      6457      6460      6463      6455      6454      6457      6458
      6455      6454      6457      6459      6455      6454      6457      6460
      6456      6454      6457      6458      6456      6454      6457      6459
      6456      6454      6457      6460      6457      6460      6463      6464
      6457      6460      6463      6465      6457      6460      6463      6466
      6458      6457      6460      6461      6458      6457      6460      6462
      6458      6457      6460      6463      6459      6457      6460      6461
      6459      6457      6460      6462      6459      6457      6460      6463
      6460      6463      6466      6467      6460      6463      6466      6468
      6460      6463      6466      6469      6461      6460      6463      6464
      6461      6460      6463      6465      6461      6460      6463      6466
      6462      6460      6463      6464      6462      6460      6463      6465
      6462      6460      6463      6466      6463      6466      6469      6470
      6463      6466      6469      6471      6463      6466      6469      6472
      6464      6463      6466      6467      6464      6463      6466      6468
      6464      6463      6466      6469      6465      6463      6466      6467
      6465      6463      6466      6468      6465      6463      6466      6469
      6466      6469      6472      6473      6466      6469      6472      6474
      6466      6469      6472      6475      6467      6466      6469      6470
      6467      6466      6469      6471      6467      6466      6469      6472
      6468      6466      6469      6470      6468      6466      6469      6471
      6468      6466      6469      6472      6469      6472      6475      6476
      6469      6472      6475      6477      6469      6472      6475      6478
      6470      6469      6472      6473      6470      6469      6472      6474
      6470      6469      6472      6475      6471      6469      6472      6473
      6471      6469      6472      6474      6471      6469      6472      6475
      6472      6475      6478      6479      6472      6475      6478      6480
      6472      6475      6478      6481      6473      6472      6475      6476
      6473      6472      6475      6477      6473      6472      6475      6478
      6474      6472      6475      6476      6474      6472      6475      6477
      6474      6472      6475      6478      6475      6478      6481      6482
      6475      6478      6481      6483      6475      6478      6481      6484
      6476      6475      6478      6479      6476      6475      6478      6480
      6476      6475      6478      6481      6477      6475      6478      6479
      6477      6475      6478      6480      6477      6475      6478      6481
      6478      6481      6484      6485      6478      6481      6484      6486
      6478      6481      6484      6487      6479      6478      6481      6482
      6479      6478      6481      6483      6479      6478      6481      6484
      6480      6478      6481      6482      6480      6478      6481      6483
      6480      6478      6481      6484      6481      6484      6487      6488
      6481      6484      6487      6489      6481      6484      6487      6490
      6482      6481      6484      6485      6482      6481      6484      6486
      6482      6481      6484      6487      6483      6481      6484      6485
      6483      6481      6484      6486      6483      6481      6484      6487
      6484      6487      6490      6491      6484      6487      6490      6492
      6484      6487      6490      6493      6485      6484      6487      6488
      6485      6484      6487      6489      6485      6484      6487      6490
      6486      6484      6487      6488      6486      6484      6487      6489
      6486      6484      6487      6490      6488      6487      6490      6491
      6488      6487      6490      6492      6488      6487      6490      6493
      6489      6487      6490      6491      6489      6487      6490      6492
      6489      6487      6490      6493      6494      6496      6499      6500
      6494      6496      6499      6501      6494      6496      6499      6502
      6495      6494      6496      6497      6495      6494      6496      6498
      6495      6494      6496      6499      6496      6499      6502      6503
      6496      6499      6502      6504      6496      6499      6502      6505
      6497      6496      6499      6500      6497      6496      6499      6501
      6497      6496      6499      6502      6498      6496      6499      6500
      6498      6496      6499      6501      6498      6496      6499      6502
      6499      6502      6505      6506      6499      6502      6505      6507
      6499      6502      6505      6508      6500      6499      6502      6503
      6500      6499      6502      6504      6500      6499      6502      6505
      6501      6499      6502      6503      6501      6499      6502      6504
      6501      6499      6502      6505      6502      6505      6508      6509
      6502      6505      6508      6510      6502      6505      6508      6511
      6503      6502      6505      6506      6503      6502      6505      6507
      6503      6502      6505      6508      6504      6502      6505      6506
      6504      6502      6505      6507      6504      6502      6505      6508
      6505      6508      6511      6512      6505      6508      6511      6513
      6505      6508      6511      6514      6506      6505      6508      6509
      6506      6505      6508      6510      6506      6505      6508      6511
      6507      6505      6508      6509      6507      6505      6508      6510
      6507      6505      6508      6511      6508      6511      6514      6515
      6508      6511      6514      6516      6508      6511      6514      6517
      6509      6508      6511      6512      6509      6508      6511      6513
      6509      6508      6511      6514      6510      6508      6511      6512
      6510      6508      6511      6513      6510      6508      6511      6514
      6511      6514      6517      6518      6511      6514      6517      6519
      6512      6511      6514      6515      6512      6511      6514      6516
      6512      6511      6514      6517      6513      6511      6514      6515
      6513      6511      6514      6516      6513      6511      6514      6517
      6514      6517      6519      6520      6514      6517      6519      6521
      6515      6514      6517      6518      6515      6514      6517      6519
      6516      6514      6517      6518      6516      6514      6517      6519
      6517      6519      6521      6522      6517      6519      6521      6523
      6517      6519      6521      6524      6518      6517      6519      6520
      6518      6517      6519      6521      6519      6521      6524      6525
      6519      6521      6524      6526      6519      6521      6524      6527
      6520      6519      6521      6522      6520      6519      6521      6523
      6520      6519      6521      6524      6521      6524      6527      6528
      6521      6524      6527      6529      6521      6524      6527      6530
      6522      6521      6524      6525      6522      6521      6524      6526
      6522      6521      6524      6527      6523      6521      6524      6525
      6523      6521      6524      6526      6523      6521      6524      6527
      6524      6527      6530      6531      6524      6527      6530      6532
      6524      6527      6530      6533      6525      6524      6527      6528
      6525      6524      6527      6529      6525      6524      6527      6530
      6526      6524      6527      6528      6526      6524      6527      6529
      6526      6524      6527      6530      6527      6530      6533      6534
      6527      6530      6533      6535      6527      6530      6533      6536
      6528      6527      6530      6531      6528      6527      6530      6532
      6528      6527      6530      6533      6529      6527      6530      6531
      6529      6527      6530      6532      6529      6527      6530      6533
      6530      6533      6536      6537      6530      6533      6536      6538
      6530      6533      6536      6539      6531      6530      6533      6534
      6531      6530      6533      6535      6531      6530      6533      6536
      6532      6530      6533      6534      6532      6530      6533      6535
      6532      6530      6533      6536      6533      6536      6539      6540
      6533      6536      6539      6541      6533      6536      6539      6542
      6534      6533      6536      6537      6534      6533      6536      6538
      6534      6533      6536      6539      6535      6533      6536      6537
      6535      6533      6536      6538      6535      6533      6536      6539
      6536      6539      6542      6543      6536      6539      6542      6544
      6536      6539      6542      6545      6537      6536      6539      6540
      6537      6536      6539      6541      6537      6536      6539      6542
      6538      6536      6539      6540      6538      6536      6539      6541
      6538      6536      6539      6542      6540      6539      6542      6543
      6540      6539      6542      6544      6540      6539      6542      6545
      6541      6539      6542      6543      6541      6539      6542      6544
      6541      6539      6542      6545      6546      6559      6562      6563
      6546      6559      6562      6564      6546      6559      6562      6568
      6547      6546      6551      6552      6547      6546      6551      6553
      6547      6546      6551      6554      6547      6546      6555      6556
      6547      6546      6555      6557      6547      6546      6555      6558
      6547      6546      6559      6560      6547      6546      6559      6561
      6547      6546      6559      6562      6548      6547      6546      6551
      6548      6547      6546      6555      6548      6547      6546      6559
      6549      6547      6546      6551      6549      6547      6546      6555
      6549      6547      6546      6559      6550      6547      6546      6551
      6550      6547      6546      6555      6550      6547      6546      6559
      6551      6546      6555      6556      6551      6546      6555      6557
      6551      6546      6555      6558      6551      6546      6559      6560
      6551      6546      6559      6561      6551      6546      6559      6562
      6552      6551      6546      6555      6552      6551      6546      6559
      6553      6551      6546      6555      6553      6551      6546      6559
      6554      6551      6546      6555      6554      6551      6546      6559
      6555      6546      6559      6560      6555      6546      6559      6561
      6555      6546      6559      6562      6556      6555      6546      6559
      6557      6555      6546      6559      6558      6555      6546      6559
      6559      6562      6568      6565      6560      6559      6562      6563
      6560      6559      6562      6564      6560      6559      6562      6568
      6561      6559      6562      6563      6561      6559      6562      6564
      6561      6559      6562      6568      6562      6568      6565      6566
      6562      6568      6565      6567      6562      6568      6565      6569
      6563      6562      6568      6565      6564      6562      6568      6565
      6565      6569      6570      6571      6565      6569      6570      6572
      6565      6569      6570      6573      6566      6565      6569      6570
      6567      6565      6569      6570      6568      6565      6569      6570
      6569      6570      6573      6574      6569      6570      6573      6575
      6569      6570      6573      6581      6570      6573      6575      6576
      6570      6573      6581      6582      6570      6573      6581      6583
      6570      6573      6581      6584      6571      6570      6573      6574
      6571      6570      6573      6575      6571      6570      6573      6581
      6572      6570      6573      6574      6572      6570      6573      6575
      6572      6570      6573      6581      6573      6575      6576      6577
      6573      6575      6576      6578      6573      6581      6584      6585
      6574      6573      6575      6576      6574      6573      6581      6582
      6574      6573      6581      6583      6574      6573      6581      6584
      6575      6573      6581      6582      6575      6573      6581      6583
      6575      6573      6581      6584      6575      6576      6578      6579
      6575      6576      6578      6580      6575      6576      6578      6590
      6576      6575      6573      6581      6576      6578      6590      6591
      6576      6578      6590      6592      6576      6578      6590      6593
      6577      6576      6578      6579      6577      6576      6578      6580
      6577      6576      6578      6590      6578      6590      6593      6594
      6578      6590      6593      6595      6578      6590      6593      6596
      6579      6578      6590      6591      6579      6578      6590      6592
      6579      6578      6590      6593      6580      6578      6590      6591
      6580      6578      6590      6592      6580      6578      6590      6593
      6581      6584      6585      6586      6581      6584      6585      6587
      6582      6581      6584      6585      6583      6581      6584      6585
      6584      6585      6587      6588      6584      6585      6587      6589
      6584      6585      6587      6635      6585      6587      6635      6636
      6585      6587      6635      6637      6585      6587      6635      6638
      6586      6585      6587      6588      6586      6585      6587      6589
      6586      6585      6587      6635      6587      6635      6638      6639
      6587      6635      6638      6640      6587      6635      6638      6641
      6588      6587      6635      6636      6588      6587      6635      6637
      6588      6587      6635      6638      6589      6587      6635      6636
      6589      6587      6635      6637      6589      6587      6635      6638
      6590      6593      6596      6597      6590      6593      6596      6598
      6590      6593      6596      6599      6591      6590      6593      6594
      6591      6590      6593      6595      6591      6590      6593      6596
      6592      6590      6593      6594      6592      6590      6593      6595
      6592      6590      6593      6596      6593      6596      6599      6600
      6593      6596      6599      6601      6593      6596      6599      6602
      6594      6593      6596      6597      6594      6593      6596      6598
      6594      6593      6596      6599      6595      6593      6596      6597
      6595      6593      6596      6598      6595      6593      6596      6599
      6596      6599      6602      6603      6596      6599      6602      6604
      6596      6599      6602      6605      6597      6596      6599      6600
      6597      6596      6599      6601      6597      6596      6599      6602
      6598      6596      6599      6600      6598      6596      6599      6601
      6598      6596      6599      6602      6599      6602      6605      6606
      6599      6602      6605      6607      6599      6602      6605      6608
      6600      6599      6602      6603      6600      6599      6602      6604
      6600      6599      6602      6605      6601      6599      6602      6603
      6601      6599      6602      6604      6601      6599      6602      6605
      6602      6605      6608      6609      6602      6605      6608      6610
      6603      6602      6605      6606      6603      6602      6605      6607
      6603      6602      6605      6608      6604      6602      6605      6606
      6604      6602      6605      6607      6604      6602      6605      6608
      6605      6608      6610      6611      6605      6608      6610      6612
      6606      6605      6608      6609      6606      6605      6608      6610
      6607      6605      6608      6609      6607      6605      6608      6610
      6608      6610      6612      6613      6608      6610      6612      6614
      6608      6610      6612      6615      6609      6608      6610      6611
      6609      6608      6610      6612      6610      6612      6615      6616
      6610      6612      6615      6617      6611      6610      6612      6613
      6611      6610      6612      6614      6611      6610      6612      6615
      6612      6615      6617      6618      6612      6615      6617      6619
      6613      6612      6615      6616      6613      6612      6615      6617
      6614      6612      6615      6616      6614      6612      6615      6617
      6615      6617      6619      6620      6615      6617      6619      6621
      6615      6617      6619      6622      6616      6615      6617      6618
      6616      6615      6617      6619      6617      6619      6622      6623
      6617      6619      6622      6624      6617      6619      6622      6625
      6618      6617      6619      6620      6618      6617      6619      6621
      6618      6617      6619      6622      6619      6622      6625      6626
      6619      6622      6625      6627      6619      6622      6625      6628
      6620      6619      6622      6623      6620      6619      6622      6624
      6620      6619      6622      6625      6621      6619      6622      6623
      6621      6619      6622      6624      6621      6619      6622      6625
      6622      6625      6628      6629      6622      6625      6628      6630
      6622      6625      6628      6631      6623      6622      6625      6626
      6623      6622      6625      6627      6623      6622      6625      6628
      6624      6622      6625      6626      6624      6622      6625      6627
      6624      6622      6625      6628      6625      6628      6631      6632
      6625      6628      6631      6633      6625      6628      6631      6634
      6626      6625      6628      6629      6626      6625      6628      6630
      6626      6625      6628      6631      6627      6625      6628      6629
      6627      6625      6628      6630      6627      6625      6628      6631
      6629      6628      6631      6632      6629      6628      6631      6633
      6629      6628      6631      6634      6630      6628      6631      6632
      6630      6628      6631      6633      6630      6628      6631      6634
      6635      6638      6641      6642      6635      6638      6641      6643
      6635      6638      6641      6644      6636      6635      6638      6639
      6636      6635      6638      6640      6636      6635      6638      6641
      6637      6635      6638      6639      6637      6635      6638      6640
      6637      6635      6638      6641      6638      6641      6644      6645
      6638      6641      6644      6646      6638      6641      6644      6647
      6639      6638      6641      6642      6639      6638      6641      6643
      6639      6638      6641      6644      6640      6638      6641      6642
      6640      6638      6641      6643      6640      6638      6641      6644
      6641      6644      6647      6648      6641      6644      6647      6649
      6641      6644      6647      6650      6642      6641      6644      6645
      6642      6641      6644      6646      6642      6641      6644      6647
      6643      6641      6644      6645      6643      6641      6644      6646
      6643      6641      6644      6647      6644      6647      6650      6651
      6644      6647      6650      6652      6644      6647      6650      6653
      6645      6644      6647      6648      6645      6644      6647      6649
      6645      6644      6647      6650      6646      6644      6647      6648
      6646      6644      6647      6649      6646      6644      6647      6650
      6647      6650      6653      6654      6647      6650      6653      6655
      6647      6650      6653      6656      6648      6647      6650      6651
      6648      6647      6650      6652      6648      6647      6650      6653
      6649      6647      6650      6651      6649      6647      6650      6652
      6649      6647      6650      6653      6650      6653      6656      6657
      6650      6653      6656      6658      6650      6653      6656      6659
      6651      6650      6653      6654      6651      6650      6653      6655
      6651      6650      6653      6656      6652      6650      6653      6654
      6652      6650      6653      6655      6652      6650      6653      6656
      6653      6656      6659      6660      6653      6656      6659      6661
      6653      6656      6659      6662      6654      6653      6656      6657
      6654      6653      6656      6658      6654      6653      6656      6659
      6655      6653      6656      6657      6655      6653      6656      6658
      6655      6653      6656      6659      6656      6659      6662      6663
      6656      6659      6662      6664      6656      6659      6662      6665
      6657      6656      6659      6660      6657      6656      6659      6661
      6657      6656      6659      6662      6658      6656      6659      6660
      6658      6656      6659      6661      6658      6656      6659      6662
      6659      6662      6665      6666      6659      6662      6665      6667
      6659      6662      6665      6668      6660      6659      6662      6663
      6660      6659      6662      6664      6660      6659      6662      6665
      6661      6659      6662      6663      6661      6659      6662      6664
      6661      6659      6662      6665      6662      6665      6668      6669
      6662      6665      6668      6670      6662      6665      6668      6671
      6663      6662      6665      6666      6663      6662      6665      6667
      6663      6662      6665      6668      6664      6662      6665      6666
      6664      6662      6665      6667      6664      6662      6665      6668
      6665      6668      6671      6672      6665      6668      6671      6673
      6665      6668      6671      6674      6666      6665      6668      6669
      6666      6665      6668      6670      6666      6665      6668      6671
      6667      6665      6668      6669      6667      6665      6668      6670
      6667      6665      6668      6671      6668      6671      6674      6675
      6668      6671      6674      6676      6668      6671      6674      6677
      6669      6668      6671      6672      6669      6668      6671      6673
      6669      6668      6671      6674      6670      6668      6671      6672
      6670      6668      6671      6673      6670      6668      6671      6674
      6671      6674      6677      6678      6671      6674      6677      6679
      6671      6674      6677      6680      6672      6671      6674      6675
      6672      6671      6674      6676      6672      6671      6674      6677
      6673      6671      6674      6675      6673      6671      6674      6676
      6673      6671      6674      6677      6674      6677      6680      6681
      6674      6677      6680      6682      6674      6677      6680      6683
      6675      6674      6677      6678      6675      6674      6677      6679
      6675      6674      6677      6680      6676      6674      6677      6678
      6676      6674      6677      6679      6676      6674      6677      6680
      6678      6677      6680      6681      6678      6677      6680      6682
      6678      6677      6680      6683      6679      6677      6680      6681
      6679      6677      6680      6682      6679      6677      6680      6683
      6684      6685      6700      6701      6684      6685      6700      6702
      6684      6685      6700      6706      6685      6684      6688      6689
      6685      6684      6688      6690      6685      6684      6688      6691
      6685      6684      6692      6693      6685      6684      6692      6694
      6685      6684      6692      6695      6685      6684      6696      6697
      6685      6684      6696      6698      6685      6684      6696      6699
      6685      6700      6706      6703      6686      6685      6684      6688
      6686      6685      6684      6692      6686      6685      6684      6696
      6686      6685      6700      6701      6686      6685      6700      6702
      6686      6685      6700      6706      6687      6685      6684      6688
      6687      6685      6684      6692      6687      6685      6684      6696
      6687      6685      6700      6701      6687      6685      6700      6702
      6687      6685      6700      6706      6688      6684      6685      6700
      6688      6684      6692      6693      6688      6684      6692      6694
      6688      6684      6692      6695      6688      6684      6696      6697
      6688      6684      6696      6698      6688      6684      6696      6699
      6689      6688      6684      6692      6689      6688      6684      6696
      6690      6688      6684      6692      6690      6688      6684      6696
      6691      6688      6684      6692      6691      6688      6684      6696
      6692      6684      6685      6700      6692      6684      6696      6697
      6692      6684      6696      6698      6692      6684      6696      6699
      6693      6692      6684      6696      6694      6692      6684      6696
      6695      6692      6684      6696      6696      6684      6685      6700
      6700      6706      6703      6704      6700      6706      6703      6705
      6700      6706      6703      6707      6701      6700      6706      6703
      6702      6700      6706      6703      6703      6707      6708      6709
      6703      6707      6708      6710      6703      6707      6708      6711
      6704      6703      6707      6708      6705      6703      6707      6708
      6706      6703      6707      6708      6707      6708      6711      6712
      6707      6708      6711      6713      6707      6708      6711      6719
      6708      6711      6713      6714      6708      6711      6719      6720
      6708      6711      6719      6721      6708      6711      6719      6722
      6709      6708      6711      6712      6709      6708      6711      6713
      6709      6708      6711      6719      6710      6708      6711      6712
      6710      6708      6711      6713      6710      6708      6711      6719
      6711      6713      6714      6715      6711      6713      6714      6716
      6711      6719      6722      6723      6712      6711      6713      6714
      6712      6711      6719      6720      6712      6711      6719      6721
      6712      6711      6719      6722      6713      6711      6719      6720
      6713      6711      6719      6721      6713      6711      6719      6722
      6713      6714      6716      6717      6713      6714      6716      6718
      6713      6714      6716      6728      6714      6713      6711      6719
      6714      6716      6728      6729      6714      6716      6728      6730
      6714      6716      6728      6731      6715      6714      6716      6717
      6715      6714      6716      6718      6715      6714      6716      6728
      6716      6728      6731      6732      6716      6728      6731      6733
      6716      6728      6731      6734      6717      6716      6728      6729
      6717      6716      6728      6730      6717      6716      6728      6731
      6718      6716      6728      6729      6718      6716      6728      6730
      6718      6716      6728      6731      6719      6722      6723      6724
      6719      6722      6723      6725      6720      6719      6722      6723
      6721      6719      6722      6723      6722      6723      6725      6726
      6722      6723      6725      6727      6722      6723      6725      6775
      6723      6725      6775      6776      6723      6725      6775      6777
      6723      6725      6775      6778      6724      6723      6725      6726
      6724      6723      6725      6727      6724      6723      6725      6775
      6725      6775      6778      6779      6725      6775      6778      6780
      6725      6775      6778      6781      6726      6725      6775      6776
      6726      6725      6775      6777      6726      6725      6775      6778
      6727      6725      6775      6776      6727      6725      6775      6777
      6727      6725      6775      6778      6728      6731      6734      6735
      6728      6731      6734      6736      6729      6728      6731      6732
      6729      6728      6731      6733      6729      6728      6731      6734
      6730      6728      6731      6732      6730      6728      6731      6733
      6730      6728      6731      6734      6731      6734      6736      6737
      6731      6734      6736      6738      6732      6731      6734      6735
      6732      6731      6734      6736      6733      6731      6734      6735
      6733      6731      6734      6736      6734      6736      6738      6739
      6734      6736      6738      6740      6734      6736      6738      6741
      6735      6734      6736      6737      6735      6734      6736      6738
      6736      6738      6741      6742      6736      6738      6741      6743
      6737      6736      6738      6739      6737      6736      6738      6740
      6737      6736      6738      6741      6738      6741      6743      6744
      6738      6741      6743      6745      6739      6738      6741      6742
      6739      6738      6741      6743      6740      6738      6741      6742
      6740      6738      6741      6743      6741      6743      6745      6746
      6741      6743      6745      6747      6741      6743      6745      6748
      6742      6741      6743      6744      6742      6741      6743      6745
      6743      6745      6748      6749      6743      6745      6748      6750
      6744      6743      6745      6746      6744      6743      6745      6747
      6744      6743      6745      6748      6745      6748      6750      6751
      6745      6748      6750      6752      6746      6745      6748      6749
      6746      6745      6748      6750      6747      6745      6748      6749
      6747      6745      6748      6750      6748      6750      6752      6753
      6748      6750      6752      6754      6748      6750      6752      6755
      6749      6748      6750      6751      6749      6748      6750      6752
      6750      6752      6755      6756      6750      6752      6755      6757
      6751      6750      6752      6753      6751      6750      6752      6754
      6751      6750      6752      6755      6752      6755      6757      6758
      6752      6755      6757      6759      6753      6752      6755      6756
      6753      6752      6755      6757      6754      6752      6755      6756
      6754      6752      6755      6757      6755      6757      6759      6760
      6755      6757      6759      6761      6755      6757      6759      6762
      6756      6755      6757      6758      6756      6755      6757      6759
      6757      6759      6762      6763      6757      6759      6762      6764
      6757      6759      6762      6765      6758      6757      6759      6760
      6758      6757      6759      6761      6758      6757      6759      6762
      6759      6762      6765      6766      6759      6762      6765      6767
      6759      6762      6765      6768      6760      6759      6762      6763
      6760      6759      6762      6764      6760      6759      6762      6765
      6761      6759      6762      6763      6761      6759      6762      6764
      6761      6759      6762      6765      6762      6765      6768      6769
      6762      6765      6768      6770      6762      6765      6768      6771
      6763      6762      6765      6766      6763      6762      6765      6767
      6763      6762      6765      6768      6764      6762      6765      6766
      6764      6762      6765      6767      6764      6762      6765      6768
      6765      6768      6771      6772      6765      6768      6771      6773
      6765      6768      6771      6774      6766      6765      6768      6769
      6766      6765      6768      6770      6766      6765      6768      6771
      6767      6765      6768      6769      6767      6765      6768      6770
      6767      6765      6768      6771      6769      6768      6771      6772
      6769      6768      6771      6773      6769      6768      6771      6774
      6770      6768      6771      6772      6770      6768      6771      6773
      6770      6768      6771      6774      6775      6778      6781      6782
      6775      6778      6781      6783      6775      6778      6781      6784
      6776      6775      6778      6779      6776      6775      6778      6780
      6776      6775      6778      6781      6777      6775      6778      6779
      6777      6775      6778      6780      6777      6775      6778      6781
      6778      6781      6784      6785      6778      6781      6784      6786
      6778      6781      6784      6787      6779      6778      6781      6782
      6779      6778      6781      6783      6779      6778      6781      6784
      6780      6778      6781      6782      6780      6778      6781      6783
      6780      6778      6781      6784      6781      6784      6787      6788
      6781      6784      6787      6789      6781      6784      6787      6790
      6782      6781      6784      6785      6782      6781      6784      6786
      6782      6781      6784      6787      6783      6781      6784      6785
      6783      6781      6784      6786      6783      6781      6784      6787
      6784      6787      6790      6791      6784      6787      6790      6792
      6784      6787      6790      6793      6785      6784      6787      6788
      6785      6784      6787      6789      6785      6784      6787      6790
      6786      6784      6787      6788      6786      6784      6787      6789
      6786      6784      6787      6790      6787      6790      6793      6794
      6787      6790      6793      6795      6787      6790      6793      6796
      6788      6787      6790      6791      6788      6787      6790      6792
      6788      6787      6790      6793      6789      6787      6790      6791
      6789      6787      6790      6792      6789      6787      6790      6793
      6790      6793      6796      6797      6790      6793      6796      6798
      6790      6793      6796      6799      6791      6790      6793      6794
      6791      6790      6793      6795      6791      6790      6793      6796
      6792      6790      6793      6794      6792      6790      6793      6795
      6792      6790      6793      6796      6793      6796      6799      6800
      6793      6796      6799      6801      6793      6796      6799      6802
      6794      6793      6796      6797      6794      6793      6796      6798
      6794      6793      6796      6799      6795      6793      6796      6797
      6795      6793      6796      6798      6795      6793      6796      6799
      6796      6799      6802      6803      6796      6799      6802      6804
      6796      6799      6802      6805      6797      6796      6799      6800
      6797      6796      6799      6801      6797      6796      6799      6802
      6798      6796      6799      6800      6798      6796      6799      6801
      6798      6796      6799      6802      6799      6802      6805      6806
      6799      6802      6805      6807      6799      6802      6805      6808
      6800      6799      6802      6803      6800      6799      6802      6804
      6800      6799      6802      6805      6801      6799      6802      6803
      6801      6799      6802      6804      6801      6799      6802      6805
      6802      6805      6808      6809      6802      6805      6808      6810
      6802      6805      6808      6811      6803      6802      6805      6806
      6803      6802      6805      6807      6803      6802      6805      6808
      6804      6802      6805      6806      6804      6802      6805      6807
      6804      6802      6805      6808      6805      6808      6811      6812
      6805      6808      6811      6813      6805      6808      6811      6814
      6806      6805      6808      6809      6806      6805      6808      6810
      6806      6805      6808      6811      6807      6805      6808      6809
      6807      6805      6808      6810      6807      6805      6808      6811
      6808      6811      6814      6815      6808      6811      6814      6816
      6808      6811      6814      6817      6809      6808      6811      6812
      6809      6808      6811      6813      6809      6808      6811      6814
      6810      6808      6811      6812      6810      6808      6811      6813
      6810      6808      6811      6814      6811      6814      6817      6818
      6811      6814      6817      6819      6811      6814      6817      6820
      6812      6811      6814      6815      6812      6811      6814      6816
      6812      6811      6814      6817      6813      6811      6814      6815
      6813      6811      6814      6816      6813      6811      6814      6817
      6814      6817      6820      6821      6814      6817      6820      6822
      6814      6817      6820      6823      6815      6814      6817      6818
      6815      6814      6817      6819      6815      6814      6817      6820
      6816      6814      6817      6818      6816      6814      6817      6819
      6816      6814      6817      6820      6818      6817      6820      6821
      6818      6817      6820      6822      6818      6817      6820      6823
      6819      6817      6820      6821      6819      6817      6820      6822
      6819      6817      6820      6823      6824      6828      6831      6832
      6824      6828      6831      6833      6824      6828      6831      6837
      6825      6824      6828      6829      6825      6824      6828      6830
      6825      6824      6828      6831      6826      6824      6828      6829
      6826      6824      6828      6830      6826      6824      6828      6831
      6827      6824      6828      6829      6827      6824      6828      6830
      6827      6824      6828      6831      6828      6831      6837      6834
      6829      6828      6831      6832      6829      6828      6831      6833
      6829      6828      6831      6837      6830      6828      6831      6832
      6830      6828      6831      6833      6830      6828      6831      6837
      6831      6837      6834      6835      6831      6837      6834      6836
      6831      6837      6834      6838      6832      6831      6837      6834
      6833      6831      6837      6834      6834      6838      6839      6840
      6834      6838      6839      6841      6834      6838      6839      6842
      6835      6834      6838      6839      6836      6834      6838      6839
      6837      6834      6838      6839      6838      6839      6842      6843
      6838      6839      6842      6844      6838      6839      6842      6850
      6839      6842      6844      6845      6839      6842      6850      6851
      6839      6842      6850      6852      6839      6842      6850      6853
      6840      6839      6842      6843      6840      6839      6842      6844
      6840      6839      6842      6850      6841      6839      6842      6843
      6841      6839      6842      6844      6841      6839      6842      6850
      6842      6844      6845      6846      6842      6844      6845      6847
      6842      6850      6853      6854      6843      6842      6844      6845
      6843      6842      6850      6851      6843      6842      6850      6852
      6843      6842      6850      6853      6844      6842      6850      6851
      6844      6842      6850      6852      6844      6842      6850      6853
      6844      6845      6847      6848      6844      6845      6847      6849
      6844      6845      6847      6859      6845      6844      6842      6850
      6845      6847      6859      6860      6845      6847      6859      6861
      6845      6847      6859      6862      6846      6845      6847      6848
      6846      6845      6847      6849      6846      6845      6847      6859
      6847      6859      6862      6863      6847      6859      6862      6864
      6847      6859      6862      6865      6848      6847      6859      6860
      6848      6847      6859      6861      6848      6847      6859      6862
      6849      6847      6859      6860      6849      6847      6859      6861
      6849      6847      6859      6862      6850      6853      6854      6855
      6850      6853      6854      6856      6851      6850      6853      6854
      6852      6850      6853      6854      6853      6854      6856      6857
      6853      6854      6856      6858      6853      6854      6856      6906
      6854      6856      6906      6907      6854      6856      6906      6908
      6854      6856      6906      6909      6855      6854      6856      6857
      6855      6854      6856      6858      6855      6854      6856      6906
      6856      6906      6909      6910      6856      6906      6909      6911
      6856      6906      6909      6912      6857      6856      6906      6907
      6857      6856      6906      6908      6857      6856      6906      6909
      6858      6856      6906      6907      6858      6856      6906      6908
      6858      6856      6906      6909      6859      6862      6865      6866
      6859      6862      6865      6867      6860      6859      6862      6863
      6860      6859      6862      6864      6860      6859      6862      6865
      6861      6859      6862      6863      6861      6859      6862      6864
      6861      6859      6862      6865      6862      6865      6867      6868
      6862      6865      6867      6869      6863      6862      6865      6866
      6863      6862      6865      6867      6864      6862      6865      6866
      6864      6862      6865      6867      6865      6867      6869      6870
      6865      6867      6869      6871      6865      6867      6869      6872
      6866      6865      6867      6868      6866      6865      6867      6869
      6867      6869      6872      6873      6867      6869      6872      6874
      6868      6867      6869      6870      6868      6867      6869      6871
      6868      6867      6869      6872      6869      6872      6874      6875
      6869      6872      6874      6876      6870      6869      6872      6873
      6870      6869      6872      6874      6871      6869      6872      6873
      6871      6869      6872      6874      6872      6874      6876      6877
      6872      6874      6876      6878      6872      6874      6876      6879
      6873      6872      6874      6875      6873      6872      6874      6876
      6874      6876      6879      6880      6874      6876      6879      6881
      6875      6874      6876      6877      6875      6874      6876      6878
      6875      6874      6876      6879      6876      6879      6881      6882
      6876      6879      6881      6883      6877      6876      6879      6880
      6877      6876      6879      6881      6878      6876      6879      6880
      6878      6876      6879      6881      6879      6881      6883      6884
      6879      6881      6883      6885      6879      6881      6883      6886
      6880      6879      6881      6882      6880      6879      6881      6883
      6881      6883      6886      6887      6881      6883      6886      6888
      6882      6881      6883      6884      6882      6881      6883      6885
      6882      6881      6883      6886      6883      6886      6888      6889
      6883      6886      6888      6890      6884      6883      6886      6887
      6884      6883      6886      6888      6885      6883      6886      6887
      6885      6883      6886      6888      6886      6888      6890      6891
      6886      6888      6890      6892      6886      6888      6890      6893
      6887      6886      6888      6889      6887      6886      6888      6890
      6888      6890      6893      6894      6888      6890      6893      6895
      6888      6890      6893      6896      6889      6888      6890      6891
      6889      6888      6890      6892      6889      6888      6890      6893
      6890      6893      6896      6897      6890      6893      6896      6898
      6890      6893      6896      6899      6891      6890      6893      6894
      6891      6890      6893      6895      6891      6890      6893      6896
      6892      6890      6893      6894      6892      6890      6893      6895
      6892      6890      6893      6896      6893      6896      6899      6900
      6893      6896      6899      6901      6893      6896      6899      6902
      6894      6893      6896      6897      6894      6893      6896      6898
      6894      6893      6896      6899      6895      6893      6896      6897
      6895      6893      6896      6898      6895      6893      6896      6899
      6896      6899      6902      6903      6896      6899      6902      6904
      6896      6899      6902      6905      6897      6896      6899      6900
      6897      6896      6899      6901      6897      6896      6899      6902
      6898      6896      6899      6900      6898      6896      6899      6901
      6898      6896      6899      6902      6900      6899      6902      6903
      6900      6899      6902      6904      6900      6899      6902      6905
      6901      6899      6902      6903      6901      6899      6902      6904
      6901      6899      6902      6905      6906      6909      6912      6913
      6906      6909      6912      6914      6906      6909      6912      6915
      6907      6906      6909      6910      6907      6906      6909      6911
      6907      6906      6909      6912      6908      6906      6909      6910
      6908      6906      6909      6911      6908      6906      6909      6912
      6909      6912      6915      6916      6909      6912      6915      6917
      6909      6912      6915      6918      6910      6909      6912      6913
      6910      6909      6912      6914      6910      6909      6912      6915
      6911      6909      6912      6913      6911      6909      6912      6914
      6911      6909      6912      6915      6912      6915      6918      6919
      6912      6915      6918      6920      6912      6915      6918      6921
      6913      6912      6915      6916      6913      6912      6915      6917
      6913      6912      6915      6918      6914      6912      6915      6916
      6914      6912      6915      6917      6914      6912      6915      6918
      6915      6918      6921      6922      6915      6918      6921      6923
      6915      6918      6921      6924      6916      6915      6918      6919
      6916      6915      6918      6920      6916      6915      6918      6921
      6917      6915      6918      6919      6917      6915      6918      6920
      6917      6915      6918      6921      6918      6921      6924      6925
      6918      6921      6924      6926      6918      6921      6924      6927
      6919      6918      6921      6922      6919      6918      6921      6923
      6919      6918      6921      6924      6920      6918      6921      6922
      6920      6918      6921      6923      6920      6918      6921      6924
      6921      6924      6927      6928      6921      6924      6927      6929
      6921      6924      6927      6930      6922      6921      6924      6925
      6922      6921      6924      6926      6922      6921      6924      6927
      6923      6921      6924      6925      6923      6921      6924      6926
      6923      6921      6924      6927      6924      6927      6930      6931
      6924      6927      6930      6932      6924      6927      6930      6933
      6925      6924      6927      6928      6925      6924      6927      6929
      6925      6924      6927      6930      6926      6924      6927      6928
      6926      6924      6927      6929      6926      6924      6927      6930
      6927      6930      6933      6934      6927      6930      6933      6935
      6927      6930      6933      6936      6928      6927      6930      6931
      6928      6927      6930      6932      6928      6927      6930      6933
      6929      6927      6930      6931      6929      6927      6930      6932
      6929      6927      6930      6933      6930      6933      6936      6937
      6930      6933      6936      6938      6930      6933      6936      6939
      6931      6930      6933      6934      6931      6930      6933      6935
      6931      6930      6933      6936      6932      6930      6933      6934
      6932      6930      6933      6935      6932      6930      6933      6936
      6933      6936      6939      6940      6933      6936      6939      6941
      6933      6936      6939      6942      6934      6933      6936      6937
      6934      6933      6936      6938      6934      6933      6936      6939
      6935      6933      6936      6937      6935      6933      6936      6938
      6935      6933      6936      6939      6936      6939      6942      6943
      6936      6939      6942      6944      6936      6939      6942      6945
      6937      6936      6939      6940      6937      6936      6939      6941
      6937      6936      6939      6942      6938      6936      6939      6940
      6938      6936      6939      6941      6938      6936      6939      6942
      6939      6942      6945      6946      6939      6942      6945      6947
      6939      6942      6945      6948      6940      6939      6942      6943
      6940      6939      6942      6944      6940      6939      6942      6945
      6941      6939      6942      6943      6941      6939      6942      6944
      6941      6939      6942      6945      6942      6945      6948      6949
      6942      6945      6948      6950      6942      6945      6948      6951
      6943      6942      6945      6946      6943      6942      6945      6947
      6943      6942      6945      6948      6944      6942      6945      6946
      6944      6942      6945      6947      6944      6942      6945      6948
      6945      6948      6951      6952      6945      6948      6951      6953
      6945      6948      6951      6954      6946      6945      6948      6949
      6946      6945      6948      6950      6946      6945      6948      6951
      6947      6945      6948      6949      6947      6945      6948      6950
      6947      6945      6948      6951      6949      6948      6951      6952
      6949      6948      6951      6953      6949      6948      6951      6954
      6950      6948      6951      6952      6950      6948      6951      6953
      6950      6948      6951      6954      6955      6959      6962      6963
      6955      6959      6962      6964      6955      6959      6962      6968
      6956      6955      6959      6960      6956      6955      6959      6961
      6956      6955      6959      6962      6957      6955      6959      6960
      6957      6955      6959      6961      6957      6955      6959      6962
      6958      6955      6959      6960      6958      6955      6959      6961
      6958      6955      6959      6962      6959      6962      6968      6965
      6960      6959      6962      6963      6960      6959      6962      6964
      6960      6959      6962      6968      6961      6959      6962      6963
      6961      6959      6962      6964      6961      6959      6962      6968
      6962      6968      6965      6966      6962      6968      6965      6967
      6962      6968      6965      6969      6963      6962      6968      6965
      6964      6962      6968      6965      6965      6969      6970      6971
      6965      6969      6970      6972      6965      6969      6970      6973
      6966      6965      6969      6970      6967      6965      6969      6970
      6968      6965      6969      6970      6969      6970      6973      6974
      6969      6970      6973      6975      6969      6970      6973      6981
      6970      6973      6975      6976      6970      6973      6981      6982
      6970      6973      6981      6983      6970      6973      6981      6984
      6971      6970      6973      6974      6971      6970      6973      6975
      6971      6970      6973      6981      6972      6970      6973      6974
      6972      6970      6973      6975      6972      6970      6973      6981
      6973      6975      6976      6977      6973      6975      6976      6978
      6973      6981      6984      6985      6974      6973      6975      6976
      6974      6973      6981      6982      6974      6973      6981      6983
      6974      6973      6981      6984      6975      6973      6981      6982
      6975      6973      6981      6983      6975      6973      6981      6984
      6975      6976      6978      6979      6975      6976      6978      6980
      6975      6976      6978      6990      6976      6975      6973      6981
      6976      6978      6990      6991      6976      6978      6990      6992
      6976      6978      6990      6993      6977      6976      6978      6979
      6977      6976      6978      6980      6977      6976      6978      6990
      6978      6990      6993      6994      6978      6990      6993      6995
      6978      6990      6993      6996      6979      6978      6990      6991
      6979      6978      6990      6992      6979      6978      6990      6993
      6980      6978      6990      6991      6980      6978      6990      6992
      6980      6978      6990      6993      6981      6984      6985      6986
      6981      6984      6985      6987      6982      6981      6984      6985
      6983      6981      6984      6985      6984      6985      6987      6988
      6984      6985      6987      6989      6984      6985      6987      7037
      6985      6987      7037      7038      6985      6987      7037      7039
      6985      6987      7037      7040      6986      6985      6987      6988
      6986      6985      6987      6989      6986      6985      6987      7037
      6987      7037      7040      7041      6987      7037      7040      7042
      6987      7037      7040      7043      6988      6987      7037      7038
      6988      6987      7037      7039      6988      6987      7037      7040
      6989      6987      7037      7038      6989      6987      7037      7039
      6989      6987      7037      7040      6990      6993      6996      6997
      6990      6993      6996      6998      6991      6990      6993      6994
      6991      6990      6993      6995      6991      6990      6993      6996
      6992      6990      6993      6994      6992      6990      6993      6995
      6992      6990      6993      6996      6993      6996      6998      6999
      6993      6996      6998      7000      6994      6993      6996      6997
      6994      6993      6996      6998      6995      6993      6996      6997
      6995      6993      6996      6998      6996      6998      7000      7001
      6996      6998      7000      7002      6996      6998      7000      7003
      6997      6996      6998      6999      6997      6996      6998      7000
      6998      7000      7003      7004      6998      7000      7003      7005
      6999      6998      7000      7001      6999      6998      7000      7002
      6999      6998      7000      7003      7000      7003      7005      7006
      7000      7003      7005      7007      7001      7000      7003      7004
      7001      7000      7003      7005      7002      7000      7003      7004
      7002      7000      7003      7005      7003      7005      7007      7008
      7003      7005      7007      7009      7003      7005      7007      7010
      7004      7003      7005      7006      7004      7003      7005      7007
      7005      7007      7010      7011      7005      7007      7010      7012
      7006      7005      7007      7008      7006      7005      7007      7009
      7006      7005      7007      7010      7007      7010      7012      7013
      7007      7010      7012      7014      7008      7007      7010      7011
      7008      7007      7010      7012      7009      7007      7010      7011
      7009      7007      7010      7012      7010      7012      7014      7015
      7010      7012      7014      7016      7010      7012      7014      7017
      7011      7010      7012      7013      7011      7010      7012      7014
      7012      7014      7017      7018      7012      7014      7017      7019
      7013      7012      7014      7015      7013      7012      7014      7016
      7013      7012      7014      7017      7014      7017      7019      7020
      7014      7017      7019      7021      7015      7014      7017      7018
      7015      7014      7017      7019      7016      7014      7017      7018
      7016      7014      7017      7019      7017      7019      7021      7022
      7017      7019      7021      7023      7017      7019      7021      7024
      7018      7017      7019      7020      7018      7017      7019      7021
      7019      7021      7024      7025      7019      7021      7024      7026
      7019      7021      7024      7027      7020      7019      7021      7022
      7020      7019      7021      7023      7020      7019      7021      7024
      7021      7024      7027      7028      7021      7024      7027      7029
      7021      7024      7027      7030      7022      7021      7024      7025
      7022      7021      7024      7026      7022      7021      7024      7027
      7023      7021      7024      7025      7023      7021      7024      7026
      7023      7021      7024      7027      7024      7027      7030      7031
      7024      7027      7030      7032      7024      7027      7030      7033
      7025      7024      7027      7028      7025      7024      7027      7029
      7025      7024      7027      7030      7026      7024      7027      7028
      7026      7024      7027      7029      7026      7024      7027      7030
      7027      7030      7033      7034      7027      7030      7033      7035
      7027      7030      7033      7036      7028      7027      7030      7031
      7028      7027      7030      7032      7028      7027      7030      7033
      7029      7027      7030      7031      7029      7027      7030      7032
      7029      7027      7030      7033      7031      7030      7033      7034
      7031      7030      7033      7035      7031      7030      7033      7036
      7032      7030      7033      7034      7032      7030      7033      7035
      7032      7030      7033      7036      7037      7040      7043      7044
      7037      7040      7043      7045      7037      7040      7043      7046
      7038      7037      7040      7041      7038      7037      7040      7042
      7038      7037      7040      7043      7039      7037      7040      7041
      7039      7037      7040      7042      7039      7037      7040      7043
      7040      7043      7046      7047      7040      7043      7046      7048
      7040      7043      7046      7049      7041      7040      7043      7044
      7041      7040      7043      7045      7041      7040      7043      7046
      7042      7040      7043      7044      7042      7040      7043      7045
      7042      7040      7043      7046      7043      7046      7049      7050
      7043      7046      7049      7051      7043      7046      7049      7052
      7044      7043      7046      7047      7044      7043      7046      7048
      7044      7043      7046      7049      7045      7043      7046      7047
      7045      7043      7046      7048      7045      7043      7046      7049
      7046      7049      7052      7053      7046      7049      7052      7054
      7046      7049      7052      7055      7047      7046      7049      7050
      7047      7046      7049      7051      7047      7046      7049      7052
      7048      7046      7049      7050      7048      7046      7049      7051
      7048      7046      7049      7052      7049      7052      7055      7056
      7049      7052      7055      7057      7049      7052      7055      7058
      7050      7049      7052      7053      7050      7049      7052      7054
      7050      7049      7052      7055      7051      7049      7052      7053
      7051      7049      7052      7054      7051      7049      7052      7055
      7052      7055      7058      7059      7052      7055      7058      7060
      7052      7055      7058      7061      7053      7052      7055      7056
      7053      7052      7055      7057      7053      7052      7055      7058
      7054      7052      7055      7056      7054      7052      7055      7057
      7054      7052      7055      7058      7055      7058      7061      7062
      7055      7058      7061      7063      7055      7058      7061      7064
      7056      7055      7058      7059      7056      7055      7058      7060
      7056      7055      7058      7061      7057      7055      7058      7059
      7057      7055      7058      7060      7057      7055      7058      7061
      7058      7061      7064      7065      7058      7061      7064      7066
      7058      7061      7064      7067      7059      7058      7061      7062
      7059      7058      7061      7063      7059      7058      7061      7064
      7060      7058      7061      7062      7060      7058      7061      7063
      7060      7058      7061      7064      7061      7064      7067      7068
      7061      7064      7067      7069      7061      7064      7067      7070
      7062      7061      7064      7065      7062      7061      7064      7066
      7062      7061      7064      7067      7063      7061      7064      7065
      7063      7061      7064      7066      7063      7061      7064      7067
      7064      7067      7070      7071      7064      7067      7070      7072
      7064      7067      7070      7073      7065      7064      7067      7068
      7065      7064      7067      7069      7065      7064      7067      7070
      7066      7064      7067      7068      7066      7064      7067      7069
      7066      7064      7067      7070      7067      7070      7073      7074
      7067      7070      7073      7075      7067      7070      7073      7076
      7068      7067      7070      7071      7068      7067      7070      7072
      7068      7067      7070      7073      7069      7067      7070      7071
      7069      7067      7070      7072      7069      7067      7070      7073
      7070      7073      7076      7077      7070      7073      7076      7078
      7070      7073      7076      7079      7071      7070      7073      7074
      7071      7070      7073      7075      7071      7070      7073      7076
      7072      7070      7073      7074      7072      7070      7073      7075
      7072      7070      7073      7076      7073      7076      7079      7080
      7073      7076      7079      7081      7073      7076      7079      7082
      7074      7073      7076      7077      7074      7073      7076      7078
      7074      7073      7076      7079      7075      7073      7076      7077
      7075      7073      7076      7078      7075      7073      7076      7079
      7076      7079      7082      7083      7076      7079      7082      7084
      7076      7079      7082      7085      7077      7076      7079      7080
      7077      7076      7079      7081      7077      7076      7079      7082
      7078      7076      7079      7080      7078      7076      7079      7081
      7078      7076      7079      7082      7080      7079      7082      7083
      7080      7079      7082      7084      7080      7079      7082      7085
      7081      7079      7082      7083      7081      7079      7082      7084
      7081      7079      7082      7085      7086      7099      7102      7103
      7086      7099      7102      7104      7086      7099      7102      7109
      7087      7086      7091      7092      7087      7086      7091      7093
      7087      7086      7091      7094      7087      7086      7095      7096
      7087      7086      7095      7097      7087      7086      7095      7098
      7087      7086      7099      7100      7087      7086      7099      7101
      7087      7086      7099      7102      7088      7087      7086      7091
      7088      7087      7086      7095      7088      7087      7086      7099
      7089      7087      7086      7091      7089      7087      7086      7095
      7089      7087      7086      7099      7090      7087      7086      7091
      7090      7087      7086      7095      7090      7087      7086      7099
      7091      7086      7095      7096      7091      7086      7095      7097
      7091      7086      7095      7098      7091      7086      7099      7100
      7091      7086      7099      7101      7091      7086      7099      7102
      7092      7091      7086      7095      7092      7091      7086      7099
      7093      7091      7086      7095      7093      7091      7086      7099
      7094      7091      7086      7095      7094      7091      7086      7099
      7095      7086      7099      7100      7095      7086      7099      7101
      7095      7086      7099      7102      7096      7095      7086      7099
      7097      7095      7086      7099      7098      7095      7086      7099
      7099      7102      7109      7105      7100      7099      7102      7103
      7100      7099      7102      7104      7100      7099      7102      7109
      7101      7099      7102      7103      7101      7099      7102      7104
      7101      7099      7102      7109      7102      7109      7105      7106
      7102      7109      7105      7107      7102      7109      7105      7108
      7103      7102      7109      7105      7104      7102      7109      7105
      7105      7108      7110      7111      7105      7108      7110      7112
      7105      7108      7110      7115      7106      7105      7108      7110
      7107      7105      7108      7110      7108      7110      7115      7113
      7108      7110      7115      7116      7108      7110      7115      7117
      7109      7105      7108      7110      7110      7115      7113      7114
      7110      7115      7113      7165      7110      7115      7117      7118
      7110      7115      7117      7119      7110      7115      7117      7121
      7111      7110      7115      7113      7111      7110      7115      7116
      7111      7110      7115      7117      7112      7110      7115      7113
      7112      7110      7115      7116      7112      7110      7115      7117
      7113      7115      7117      7118      7113      7115      7117      7119
      7113      7115      7117      7121      7113      7165      7167      7168
      7113      7165      7167      7169      7113      7165      7167      7170
      7114      7113      7115      7116      7114      7113      7115      7117
      7114      7113      7165      7166      7114      7113      7165      7167
      7115      7113      7165      7166      7115      7113      7165      7167
      7115      7117      7119      7120      7115      7117      7121      7122
      7115      7117      7121      7123      7116      7115      7113      7165
      7116      7115      7117      7118      7116      7115      7117      7119
      7116      7115      7117      7121      7117      7115      7113      7165
      7117      7121      7123      7124      7117      7121      7123      7125
      7118      7117      7119      7120      7118      7117      7121      7122
      7118      7117      7121      7123      7119      7117      7121      7122
      7119      7117      7121      7123      7120      7119      7117      7121
      7121      7123      7125      7126      7121      7123      7125      7127
      7121      7123      7125      7128      7122      7121      7123      7124
      7122      7121      7123      7125      7123      7125      7128      7129
      7123      7125      7128      7130      7123      7125      7128      7131
      7124      7123      7125      7126      7124      7123      7125      7127
      7124      7123      7125      7128      7125      7128      7131      7132
      7125      7128      7131      7133      7125      7128      7131      7134
      7126      7125      7128      7129      7126      7125      7128      7130
      7126      7125      7128      7131      7127      7125      7128      7129
      7127      7125      7128      7130      7127      7125      7128      7131
      7128      7131      7134      7135      7128      7131      7134      7136
      7128      7131      7134      7137      7129      7128      7131      7132
      7129      7128      7131      7133      7129      7128      7131      7134
      7130      7128      7131      7132      7130      7128      7131      7133
      7130      7128      7131      7134      7131      7134      7137      7138
      7131      7134      7137      7139      7131      7134      7137      7140
      7132      7131      7134      7135      7132      7131      7134      7136
      7132      7131      7134      7137      7133      7131      7134      7135
      7133      7131      7134      7136      7133      7131      7134      7137
      7134      7137      7140      7141      7134      7137      7140      7142
      7134      7137      7140      7143      7135      7134      7137      7138
      7135      7134      7137      7139      7135      7134      7137      7140
      7136      7134      7137      7138      7136      7134      7137      7139
      7136      7134      7137      7140      7137      7140      7143      7144
      7137      7140      7143      7145      7137      7140      7143      7146
      7138      7137      7140      7141      7138      7137      7140      7142
      7138      7137      7140      7143      7139      7137      7140      7141
      7139      7137      7140      7142      7139      7137      7140      7143
      7140      7143      7146      7147      7140      7143      7146      7148
      7140      7143      7146      7149      7141      7140      7143      7144
      7141      7140      7143      7145      7141      7140      7143      7146
      7142      7140      7143      7144      7142      7140      7143      7145
      7142      7140      7143      7146      7143      7146      7149      7150
      7143      7146      7149      7151      7143      7146      7149      7152
      7144      7143      7146      7147      7144      7143      7146      7148
      7144      7143      7146      7149      7145      7143      7146      7147
      7145      7143      7146      7148      7145      7143      7146      7149
      7146      7149      7152      7153      7146      7149      7152      7154
      7146      7149      7152      7155      7147      7146      7149      7150
      7147      7146      7149      7151      7147      7146      7149      7152
      7148      7146      7149      7150      7148      7146      7149      7151
      7148      7146      7149      7152      7149      7152      7155      7156
      7149      7152      7155      7157      7149      7152      7155      7158
      7150      7149      7152      7153      7150      7149      7152      7154
      7150      7149      7152      7155      7151      7149      7152      7153
      7151      7149      7152      7154      7151      7149      7152      7155
      7152      7155      7158      7159      7152      7155      7158      7160
      7152      7155      7158      7161      7153      7152      7155      7156
      7153      7152      7155      7157      7153      7152      7155      7158
      7154      7152      7155      7156      7154      7152      7155      7157
      7154      7152      7155      7158      7155      7158      7161      7162
      7155      7158      7161      7163      7155      7158      7161      7164
      7156      7155      7158      7159      7156      7155      7158      7160
      7156      7155      7158      7161      7157      7155      7158      7159
      7157      7155      7158      7160      7157      7155      7158      7161
      7159      7158      7161      7162      7159      7158      7161      7163
      7159      7158      7161      7164      7160      7158      7161      7162
      7160      7158      7161      7163      7160      7158      7161      7164
      7165      7167      7170      7171      7165      7167      7170      7172
      7165      7167      7170      7173      7166      7165      7167      7168
      7166      7165      7167      7169      7166      7165      7167      7170
      7167      7170      7173      7174      7167      7170      7173      7175
      7167      7170      7173      7176      7168      7167      7170      7171
      7168      7167      7170      7172      7168      7167      7170      7173
      7169      7167      7170      7171      7169      7167      7170      7172
      7169      7167      7170      7173      7170      7173      7176      7177
      7170      7173      7176      7178      7170      7173      7176      7179
      7171      7170      7173      7174      7171      7170      7173      7175
      7171      7170      7173      7176      7172      7170      7173      7174
      7172      7170      7173      7175      7172      7170      7173      7176
      7173      7176      7179      7180      7173      7176      7179      7181
      7173      7176      7179      7182      7174      7173      7176      7177
      7174      7173      7176      7178      7174      7173      7176      7179
      7175      7173      7176      7177      7175      7173      7176      7178
      7175      7173      7176      7179      7176      7179      7182      7183
      7176      7179      7182      7184      7176      7179      7182      7185
      7177      7176      7179      7180      7177      7176      7179      7181
      7177      7176      7179      7182      7178      7176      7179      7180
      7178      7176      7179      7181      7178      7176      7179      7182
      7179      7182      7185      7186      7179      7182      7185      7187
      7179      7182      7185      7188      7180      7179      7182      7183
      7180      7179      7182      7184      7180      7179      7182      7185
      7181      7179      7182      7183      7181      7179      7182      7184
      7181      7179      7182      7185      7182      7185      7188      7189
      7182      7185      7188      7190      7183      7182      7185      7186
      7183      7182      7185      7187      7183      7182      7185      7188
      7184      7182      7185      7186      7184      7182      7185      7187
      7184      7182      7185      7188      7185      7188      7190      7191
      7185      7188      7190      7192      7186      7185      7188      7189
      7186      7185      7188      7190      7187      7185      7188      7189
      7187      7185      7188      7190      7188      7190      7192      7193
      7188      7190      7192      7194      7188      7190      7192      7195
      7189      7188      7190      7191      7189      7188      7190      7192
      7190      7192      7195      7196      7190      7192      7195      7197
      7190      7192      7195      7198      7191      7190      7192      7193
      7191      7190      7192      7194      7191      7190      7192      7195
      7192      7195      7198      7199      7192      7195      7198      7200
      7192      7195      7198      7201      7193      7192      7195      7196
      7193      7192      7195      7197      7193      7192      7195      7198
      7194      7192      7195      7196      7194      7192      7195      7197
      7194      7192      7195      7198      7195      7198      7201      7202
      7195      7198      7201      7203      7195      7198      7201      7204
      7196      7195      7198      7199      7196      7195      7198      7200
      7196      7195      7198      7201      7197      7195      7198      7199
      7197      7195      7198      7200      7197      7195      7198      7201
      7198      7201      7204      7205      7198      7201      7204      7206
      7198      7201      7204      7207      7199      7198      7201      7202
      7199      7198      7201      7203      7199      7198      7201      7204
      7200      7198      7201      7202      7200      7198      7201      7203
      7200      7198      7201      7204      7201      7204      7207      7208
      7201      7204      7207      7209      7201      7204      7207      7210
      7202      7201      7204      7205      7202      7201      7204      7206
      7202      7201      7204      7207      7203      7201      7204      7205
      7203      7201      7204      7206      7203      7201      7204      7207
      7204      7207      7210      7211      7204      7207      7210      7212
      7204      7207      7210      7213      7205      7204      7207      7208
      7205      7204      7207      7209      7205      7204      7207      7210
      7206      7204      7207      7208      7206      7204      7207      7209
      7206      7204      7207      7210      7207      7210      7213      7214
      7207      7210      7213      7215      7207      7210      7213      7216
      7208      7207      7210      7211      7208      7207      7210      7212
      7208      7207      7210      7213      7209      7207      7210      7211
      7209      7207      7210      7212      7209      7207      7210      7213
      7211      7210      7213      7214      7211      7210      7213      7215
      7211      7210      7213      7216      7212      7210      7213      7214
      7212      7210      7213      7215      7212      7210      7213      7216
      7217      7221      7224      7225      7217      7221      7224      7255
      7217      7263      7260      7255      7217      7263      7260      7261
      7217      7263      7260      7262      7218      7217      7219      7220
      7218      7217      7221      7222      7218      7217      7221      7223
      7218      7217      7221      7224      7218      7217      7263      7260
      7218      7217      7263      7264      7218      7217      7263      7265
      7219      7217      7221      7222      7219      7217      7221      7223
      7219      7217      7221      7224      7219      7217      7263      7260
      7219      7217      7263      7264      7219      7217      7263      7265
      7220      7219      7217      7221      7220      7219      7217      7263
      7221      7217      7263      7260      7221      7217      7263      7264
      7221      7217      7263      7265      7221      7224      7225      7226
      7221      7224      7225      7227      7221      7224      7255      7253
      7221      7224      7255      7256      7221      7224      7255      7260
      7222      7221      7217      7263      7222      7221      7224      7225
      7222      7221      7224      7255      7223      7221      7217      7263
      7223      7221      7224      7225      7223      7221      7224      7255
      7224      7221      7217      7263      7224      7225      7227      7228
      7224      7225      7227      7229      7224      7225      7227      7230
      7224      7255      7253      7230      7224      7255      7253      7250
      7224      7255      7253      7254      7224      7255      7256      7257
      7224      7255      7256      7258      7224      7255      7256      7259
      7224      7255      7260      7261      7224      7255      7260      7262
      7224      7255      7260      7263      7225      7224      7255      7253
      7225      7224      7255      7256      7225      7224      7255      7260
      7225      7227      7230      7231      7225      7227      7230      7232
      7225      7227      7230      7253      7226      7225      7224      7255
      7226      7225      7227      7228      7226      7225      7227      7229
      7226      7225      7227      7230      7227      7225      7224      7255
      7227      7230      7232      7233      7227      7230      7232      7234
      7227      7230      7232      7242      7227      7230      7253      7250
      7227      7230      7253      7254      7227      7230      7253      7255
      7228      7227      7230      7231      7228      7227      7230      7232
      7228      7227      7230      7253      7229      7227      7230      7231
      7229      7227      7230      7232      7229      7227      7230      7253
      7230      7232      7234      7235      7230      7232      7234      7236
      7230      7232      7234      7237      7230      7232      7242      7240
      7230      7232      7242      7243      7230      7232      7242      7247
      7230      7253      7250      7247      7230      7253      7250      7251
      7230      7253      7250      7252      7230      7253      7255      7256
      7230      7253      7255      7260      7231      7230      7232      7233
      7231      7230      7232      7234      7231      7230      7232      7242
      7231      7230      7253      7250      7231      7230      7253      7254
      7231      7230      7253      7255      7232      7230      7253      7250
      7232      7230      7253      7254      7232      7230      7253      7255
      7232      7234      7237      7238      7232      7234      7237      7239
      7232      7234      7237      7240      7232      7242      7240      7237
      7232      7242      7240      7241      7232      7242      7240      7266
      7232      7242      7243      7244      7232      7242      7243      7245
      7232      7242      7243      7246      7232      7242      7247      7248
      7232      7242      7247      7249      7232      7242      7247      7250
      7233      7232      7230      7253      7233      7232      7234      7235
      7233      7232      7234      7236      7233      7232      7234      7237
      7233      7232      7242      7240      7233      7232      7242      7243
      7233      7232      7242      7247      7234      7232      7230      7253
      7234      7232      7242      7240      7234      7232      7242      7243
      7234      7232      7242      7247      7234      7237      7240      7241
      7234      7237      7240      7242      7234      7237      7240      7266
      7235      7234      7232      7242      7235      7234      7237      7238
      7235      7234      7237      7239      7235      7234      7237      7240
      7236      7234      7232      7242      7236      7234      7237      7238
      7236      7234      7237      7239      7236      7234      7237      7240
      7237      7234      7232      7242      7237      7240      7242      7243
      7237      7240      7242      7247      7237      7240      7266      7267
      7237      7240      7266      7268      7237      7240      7266      7272
      7238      7237      7240      7241      7238      7237      7240      7242
      7238      7237      7240      7266      7239      7237      7240      7241
      7239      7237      7240      7242      7239      7237      7240      7266
      7240      7242      7243      7244      7240      7242      7243      7245
      7240      7242      7243      7246      7240      7242      7247      7248
      7240      7242      7247      7249      7240      7242      7247      7250
      7240      7266      7268      7269      7240      7266      7268      7270
      7240      7266      7268      7271      7240      7266      7272      7273
      7240      7266      7272      7274      7240      7266      7272      7275
      7241      7240      7242      7243      7241      7240      7242      7247
      7241      7240      7266      7267      7241      7240      7266      7268
      7241      7240      7266      7272      7242      7232      7230      7253
      7242      7240      7266      7267      7242      7240      7266      7268
      7242      7240      7266      7272      7242      7247      7250      7251
      7242      7247      7250      7252      7242      7247      7250      7253
      7243      7242      7240      7266      7243      7242      7247      7248
      7243      7242      7247      7249      7243      7242      7247      7250
      7244      7243      7242      7247      7245      7243      7242      7247
      7246      7243      7242      7247      7247      7242      7240      7266
      7247      7250      7253      7254      7247      7250      7253      7255
      7248      7247      7250      7251      7248      7247      7250      7252
      7248      7247      7250      7253      7249      7247      7250      7251
      7249      7247      7250      7252      7249      7247      7250      7253
      7250      7253      7255      7256      7250      7253      7255      7260
      7251      7250      7253      7254      7251      7250      7253      7255
      7252      7250      7253      7254      7252      7250      7253      7255
      7253      7255      7256      7257      7253      7255      7256      7258
      7253      7255      7256      7259      7253      7255      7260      7261
      7253      7255      7260      7262      7253      7255      7260      7263
      7254      7253      7255      7256      7254      7253      7255      7260
      7255      7260      7263      7264      7255      7260      7263      7265
      7256      7255      7260      7261      7256      7255      7260      7262
      7256      7255      7260      7263      7257      7256      7255      7260
      7258      7256      7255      7260      7259      7256      7255      7260
      7261      7260      7263      7264      7261      7260      7263      7265
      7262      7260      7263      7264      7262      7260      7263      7265
      7266      7272      7275      7276      7266      7272      7275      7277
      7266      7272      7275      7278      7267      7266      7268      7269
      7267      7266      7268      7270      7267      7266      7268      7271
      7267      7266      7272      7273      7267      7266      7272      7274
      7267      7266      7272      7275      7268      7266      7272      7273
      7268      7266      7272      7274      7268      7266      7272      7275
      7269      7268      7266      7272      7270      7268      7266      7272
      7271      7268      7266      7272      7272      7275      7278      7279
      7272      7275      7278      7280      7272      7275      7278      7281
      7273      7272      7275      7276      7273      7272      7275      7277
      7273      7272      7275      7278      7274      7272      7275      7276
      7274      7272      7275      7277      7274      7272      7275      7278
      7275      7278      7281      7282      7275      7278      7281      7283
      7275      7278      7281      7287      7276      7275      7278      7279
      7276      7275      7278      7280      7276      7275      7278      7281
      7277      7275      7278      7279      7277      7275      7278      7280
      7277      7275      7278      7281      7278      7281      7283      7284
      7278      7281      7283      7285      7278      7281      7283      7286
      7278      7281      7287      7288      7278      7281      7287      7289
      7278      7281      7287      7290      7279      7278      7281      7282
      7279      7278      7281      7283      7279      7278      7281      7287
      7280      7278      7281      7282      7280      7278      7281      7283
      7280      7278      7281      7287      7282      7281      7283      7284
      7282      7281      7283      7285      7282      7281      7283      7286
      7282      7281      7287      7288      7282      7281      7287      7289
      7282      7281      7287      7290      7283      7281      7287      7288
      7283      7281      7287      7289      7283      7281      7287      7290
      7284      7283      7281      7287      7285      7283      7281      7287
      7286      7283      7281      7287      7291      7295      7298      7299
      7291      7295      7298      7329      7291      7337      7334      7329
      7291      7337      7334      7335      7291      7337      7334      7336
      7292      7291      7293      7294      7292      7291      7295      7296
      7292      7291      7295      7297      7292      7291      7295      7298
      7292      7291      7337      7334      7292      7291      7337      7338
      7292      7291      7337      7339      7293      7291      7295      7296
      7293      7291      7295      7297      7293      7291      7295      7298
      7293      7291      7337      7334      7293      7291      7337      7338
      7293      7291      7337      7339      7294      7293      7291      7295
      7294      7293      7291      7337      7295      7291      7337      7334
      7295      7291      7337      7338      7295      7291      7337      7339
      7295      7298      7299      7300      7295      7298      7299      7301
      7295      7298      7329      7327      7295      7298      7329      7330
      7295      7298      7329      7334      7296      7295      7291      7337
      7296      7295      7298      7299      7296      7295      7298      7329
      7297      7295      7291      7337      7297      7295      7298      7299
      7297      7295      7298      7329      7298      7295      7291      7337
      7298      7299      7301      7302      7298      7299      7301      7303
      7298      7299      7301      7304      7298      7329      7327      7304
      7298      7329      7327      7324      7298      7329      7327      7328
      7298      7329      7330      7331      7298      7329      7330      7332
      7298      7329      7330      7333      7298      7329      7334      7335
      7298      7329      7334      7336      7298      7329      7334      7337
      7299      7298      7329      7327      7299      7298      7329      7330
      7299      7298      7329      7334      7299      7301      7304      7305
      7299      7301      7304      7306      7299      7301      7304      7327
      7300      7299      7298      7329      7300      7299      7301      7302
      7300      7299      7301      7303      7300      7299      7301      7304
      7301      7299      7298      7329      7301      7304      7306      7307
      7301      7304      7306      7308      7301      7304      7306      7316
      7301      7304      7327      7324      7301      7304      7327      7328
      7301      7304      7327      7329      7302      7301      7304      7305
      7302      7301      7304      7306      7302      7301      7304      7327
      7303      7301      7304      7305      7303      7301      7304      7306
      7303      7301      7304      7327      7304      7306      7308      7309
      7304      7306      7308      7310      7304      7306      7308      7311
      7304      7306      7316      7314      7304      7306      7316      7317
      7304      7306      7316      7321      7304      7327      7324      7321
      7304      7327      7324      7325      7304      7327      7324      7326
      7304      7327      7329      7330      7304      7327      7329      7334
      7305      7304      7306      7307      7305      7304      7306      7308
      7305      7304      7306      7316      7305      7304      7327      7324
      7305      7304      7327      7328      7305      7304      7327      7329
      7306      7304      7327      7324      7306      7304      7327      7328
      7306      7304      7327      7329      7306      7308      7311      7312
      7306      7308      7311      7313      7306      7308      7311      7314
      7306      7316      7314      7311      7306      7316      7314      7315
      7306      7316      7314      7340      7306      7316      7317      7318
      7306      7316      7317      7319      7306      7316      7317      7320
      7306      7316      7321      7322      7306      7316      7321      7323
      7306      7316      7321      7324      7307      7306      7304      7327
      7307      7306      7308      7309      7307      7306      7308      7310
      7307      7306      7308      7311      7307      7306      7316      7314
      7307      7306      7316      7317      7307      7306      7316      7321
      7308      7306      7304      7327      7308      7306      7316      7314
      7308      7306      7316      7317      7308      7306      7316      7321
      7308      7311      7314      7315      7308      7311      7314      7316
      7308      7311      7314      7340      7309      7308      7306      7316
      7309      7308      7311      7312      7309      7308      7311      7313
      7309      7308      7311      7314      7310      7308      7306      7316
      7310      7308      7311      7312      7310      7308      7311      7313
      7310      7308      7311      7314      7311      7308      7306      7316
      7311      7314      7316      7317      7311      7314      7316      7321
      7311      7314      7340      7341      7311      7314      7340      7342
      7311      7314      7340      7346      7312      7311      7314      7315
      7312      7311      7314      7316      7312      7311      7314      7340
      7313      7311      7314      7315      7313      7311      7314      7316
      7313      7311      7314      7340      7314      7316      7317      7318
      7314      7316      7317      7319      7314      7316      7317      7320
      7314      7316      7321      7322      7314      7316      7321      7323
      7314      7316      7321      7324      7314      7340      7342      7343
      7314      7340      7342      7344      7314      7340      7342      7345
      7314      7340      7346      7347      7314      7340      7346      7348
      7314      7340      7346      7349      7315      7314      7316      7317
      7315      7314      7316      7321      7315      7314      7340      7341
      7315      7314      7340      7342      7315      7314      7340      7346
      7316      7306      7304      7327      7316      7314      7340      7341
      7316      7314      7340      7342      7316      7314      7340      7346
      7316      7321      7324      7325      7316      7321      7324      7326
      7316      7321      7324      7327      7317      7316      7314      7340
      7317      7316      7321      7322      7317      7316      7321      7323
      7317      7316      7321      7324      7318      7317      7316      7321
      7319      7317      7316      7321      7320      7317      7316      7321
      7321      7316      7314      7340      7321      7324      7327      7328
      7321      7324      7327      7329      7322      7321      7324      7325
      7322      7321      7324      7326      7322      7321      7324      7327
      7323      7321      7324      7325      7323      7321      7324      7326
      7323      7321      7324      7327      7324      7327      7329      7330
      7324      7327      7329      7334      7325      7324      7327      7328
      7325      7324      7327      7329      7326      7324      7327      7328
      7326      7324      7327      7329      7327      7329      7330      7331
      7327      7329      7330      7332      7327      7329      7330      7333
      7327      7329      7334      7335      7327      7329      7334      7336
      7327      7329      7334      7337      7328      7327      7329      7330
      7328      7327      7329      7334      7329      7334      7337      7338
      7329      7334      7337      7339      7330      7329      7334      7335
      7330      7329      7334      7336      7330      7329      7334      7337
      7331      7330      7329      7334      7332      7330      7329      7334
      7333      7330      7329      7334      7335      7334      7337      7338
      7335      7334      7337      7339      7336      7334      7337      7338
      7336      7334      7337      7339      7340      7346      7349      7350
      7340      7346      7349      7351      7340      7346      7349      7352
      7341      7340      7342      7343      7341      7340      7342      7344
      7341      7340      7342      7345      7341      7340      7346      7347
      7341      7340      7346      7348      7341      7340      7346      7349
      7342      7340      7346      7347      7342      7340      7346      7348
      7342      7340      7346      7349      7343      7342      7340      7346
      7344      7342      7340      7346      7345      7342      7340      7346
      7346      7349      7352      7353      7346      7349      7352      7354
      7346      7349      7352      7355      7347      7346      7349      7350
      7347      7346      7349      7351      7347      7346      7349      7352
      7348      7346      7349      7350      7348      7346      7349      7351
      7348      7346      7349      7352      7349      7352      7355      7356
      7349      7352      7355      7357      7349      7352      7355      7361
      7350      7349      7352      7353      7350      7349      7352      7354
      7350      7349      7352      7355      7351      7349      7352      7353
      7351      7349      7352      7354      7351      7349      7352      7355
      7352      7355      7357      7358      7352      7355      7357      7359
      7352      7355      7357      7360      7352      7355      7361      7362
      7352      7355      7361      7363      7352      7355      7361      7364
      7353      7352      7355      7356      7353      7352      7355      7357
      7353      7352      7355      7361      7354      7352      7355      7356
      7354      7352      7355      7357      7354      7352      7355      7361
      7356      7355      7357      7358      7356      7355      7357      7359
      7356      7355      7357      7360      7356      7355      7361      7362
      7356      7355      7361      7363      7356      7355      7361      7364
      7357      7355      7361      7362      7357      7355      7361      7363
      7357      7355      7361      7364      7358      7357      7355      7361
      7359      7357      7355      7361      7360      7357      7355      7361
      7365      7369      7371      7372      7365      7369      7371      7373
      7365      7369      7374      7375      7365      7369      7374      7376
      7365      7369      7374      7380      7366      7365      7369      7370
      7366      7365      7369      7371      7366      7365      7369      7374
      7367      7365      7369      7370      7367      7365      7369      7371
      7367      7365      7369      7374      7368      7365      7369      7370
      7368      7365      7369      7371      7368      7365      7369      7374
      7369      7374      7380      7377      7370      7369      7371      7372
      7370      7369      7371      7373      7370      7369      7374      7375
      7370      7369      7374      7376      7370      7369      7374      7380
      7371      7369      7374      7375      7371      7369      7374      7376
      7371      7369      7374      7380      7372      7371      7369      7374
      7373      7371      7369      7374      7374      7380      7377      7378
      7374      7380      7377      7379      7374      7380      7377      7381
      7375      7374      7380      7377      7376      7374      7380      7377
      7377      7381      7382      7383      7377      7381      7382      7384
      7377      7381      7382      7385      7378      7377      7381      7382
      7379      7377      7381      7382      7380      7377      7381      7382
      7381      7382      7385      7386      7381      7382      7385      7387
      7381      7382      7385      7393      7382      7385      7387      7388
      7382      7385      7393      7394      7382      7385      7393      7395
      7382      7385      7393      7396      7383      7382      7385      7386
      7383      7382      7385      7387      7383      7382      7385      7393
      7384      7382      7385      7386      7384      7382      7385      7387
      7384      7382      7385      7393      7385      7387      7388      7389
      7385      7387      7388      7390      7385      7393      7396      7397
      7386      7385      7387      7388      7386      7385      7393      7394
      7386      7385      7393      7395      7386      7385      7393      7396
      7387      7385      7393      7394      7387      7385      7393      7395
      7387      7385      7393      7396      7387      7388      7390      7391
      7387      7388      7390      7392      7387      7388      7390      7402
      7388      7387      7385      7393      7388      7390      7402      7403
      7388      7390      7402      7404      7388      7390      7402      7405
      7389      7388      7390      7391      7389      7388      7390      7392
      7389      7388      7390      7402      7390      7402      7405      7406
      7390      7402      7405      7407      7390      7402      7405      7408
      7391      7390      7402      7403      7391      7390      7402      7404
      7391      7390      7402      7405      7392      7390      7402      7403
      7392      7390      7402      7404      7392      7390      7402      7405
      7393      7396      7397      7398      7393      7396      7397      7399
      7394      7393      7396      7397      7395      7393      7396      7397
      7396      7397      7399      7400      7396      7397      7399      7401
      7396      7397      7399      7449      7397      7399      7449      7450
      7397      7399      7449      7451      7397      7399      7449      7452
      7398      7397      7399      7400      7398      7397      7399      7401
      7398      7397      7399      7449      7399      7449      7452      7453
      7399      7449      7452      7454      7399      7449      7452      7455
      7400      7399      7449      7450      7400      7399      7449      7451
      7400      7399      7449      7452      7401      7399      7449      7450
      7401      7399      7449      7451      7401      7399      7449      7452
      7402      7405      7408      7409      7402      7405      7408      7410
      7403      7402      7405      7406      7403      7402      7405      7407
      7403      7402      7405      7408      7404      7402      7405      7406
      7404      7402      7405      7407      7404      7402      7405      7408
      7405      7408      7410      7411      7405      7408      7410      7412
      7406      7405      7408      7409      7406      7405      7408      7410
      7407      7405      7408      7409      7407      7405      7408      7410
      7408      7410      7412      7413      7408      7410      7412      7414
      7408      7410      7412      7415      7409      7408      7410      7411
      7409      7408      7410      7412      7410      7412      7415      7416
      7410      7412      7415      7417      7411      7410      7412      7413
      7411      7410      7412      7414      7411      7410      7412      7415
      7412      7415      7417      7418      7412      7415      7417      7419
      7413      7412      7415      7416      7413      7412      7415      7417
      7414      7412      7415      7416      7414      7412      7415      7417
      7415      7417      7419      7420      7415      7417      7419      7421
      7415      7417      7419      7422      7416      7415      7417      7418
      7416      7415      7417      7419      7417      7419      7422      7423
      7417      7419      7422      7424      7418      7417      7419      7420
      7418      7417      7419      7421      7418      7417      7419      7422
      7419      7422      7424      7425      7419      7422      7424      7426
      7420      7419      7422      7423      7420      7419      7422      7424
      7421      7419      7422      7423      7421      7419      7422      7424
      7422      7424      7426      7427      7422      7424      7426      7428
      7422      7424      7426      7429      7423      7422      7424      7425
      7423      7422      7424      7426      7424      7426      7429      7430
      7424      7426      7429      7431      7425      7424      7426      7427
      7425      7424      7426      7428      7425      7424      7426      7429
      7426      7429      7431      7432      7426      7429      7431      7433
      7427      7426      7429      7430      7427      7426      7429      7431
      7428      7426      7429      7430      7428      7426      7429      7431
      7429      7431      7433      7434      7429      7431      7433      7435
      7429      7431      7433      7436      7430      7429      7431      7432
      7430      7429      7431      7433      7431      7433      7436      7437
      7431      7433      7436      7438      7431      7433      7436      7439
      7432      7431      7433      7434      7432      7431      7433      7435
      7432      7431      7433      7436      7433      7436      7439      7440
      7433      7436      7439      7441      7433      7436      7439      7442
      7434      7433      7436      7437      7434      7433      7436      7438
      7434      7433      7436      7439      7435      7433      7436      7437
      7435      7433      7436      7438      7435      7433      7436      7439
      7436      7439      7442      7443      7436      7439      7442      7444
      7436      7439      7442      7445      7437      7436      7439      7440
      7437      7436      7439      7441      7437      7436      7439      7442
      7438      7436      7439      7440      7438      7436      7439      7441
      7438      7436      7439      7442      7439      7442      7445      7446
      7439      7442      7445      7447      7439      7442      7445      7448
      7440      7439      7442      7443      7440      7439      7442      7444
      7440      7439      7442      7445      7441      7439      7442      7443
      7441      7439      7442      7444      7441      7439      7442      7445
      7443      7442      7445      7446      7443      7442      7445      7447
      7443      7442      7445      7448      7444      7442      7445      7446
      7444      7442      7445      7447      7444      7442      7445      7448
      7449      7452      7455      7456      7449      7452      7455      7457
      7449      7452      7455      7458      7450      7449      7452      7453
      7450      7449      7452      7454      7450      7449      7452      7455
      7451      7449      7452      7453      7451      7449      7452      7454
      7451      7449      7452      7455      7452      7455      7458      7459
      7452      7455      7458      7460      7452      7455      7458      7461
      7453      7452      7455      7456      7453      7452      7455      7457
      7453      7452      7455      7458      7454      7452      7455      7456
      7454      7452      7455      7457      7454      7452      7455      7458
      7455      7458      7461      7462      7455      7458      7461      7463
      7455      7458      7461      7464      7456      7455      7458      7459
      7456      7455      7458      7460      7456      7455      7458      7461
      7457      7455      7458      7459      7457      7455      7458      7460
      7457      7455      7458      7461      7458      7461      7464      7465
      7458      7461      7464      7466      7458      7461      7464      7467
      7459      7458      7461      7462      7459      7458      7461      7463
      7459      7458      7461      7464      7460      7458      7461      7462
      7460      7458      7461      7463      7460      7458      7461      7464
      7461      7464      7467      7468      7461      7464      7467      7469
      7461      7464      7467      7470      7462      7461      7464      7465
      7462      7461      7464      7466      7462      7461      7464      7467
      7463      7461      7464      7465      7463      7461      7464      7466
      7463      7461      7464      7467      7464      7467      7470      7471
      7464      7467      7470      7472      7464      7467      7470      7473
      7465      7464      7467      7468      7465      7464      7467      7469
      7465      7464      7467      7470      7466      7464      7467      7468
      7466      7464      7467      7469      7466      7464      7467      7470
      7467      7470      7473      7474      7467      7470      7473      7475
      7467      7470      7473      7476      7468      7467      7470      7471
      7468      7467      7470      7472      7468      7467      7470      7473
      7469      7467      7470      7471      7469      7467      7470      7472
      7469      7467      7470      7473      7470      7473      7476      7477
      7470      7473      7476      7478      7470      7473      7476      7479
      7471      7470      7473      7474      7471      7470      7473      7475
      7471      7470      7473      7476      7472      7470      7473      7474
      7472      7470      7473      7475      7472      7470      7473      7476
      7473      7476      7479      7480      7473      7476      7479      7481
      7473      7476      7479      7482      7474      7473      7476      7477
      7474      7473      7476      7478      7474      7473      7476      7479
      7475      7473      7476      7477      7475      7473      7476      7478
      7475      7473      7476      7479      7476      7479      7482      7483
      7476      7479      7482      7484      7476      7479      7482      7485
      7477      7476      7479      7480      7477      7476      7479      7481
      7477      7476      7479      7482      7478      7476      7479      7480
      7478      7476      7479      7481      7478      7476      7479      7482
      7479      7482      7485      7486      7479      7482      7485      7487
      7479      7482      7485      7488      7480      7479      7482      7483
      7480      7479      7482      7484      7480      7479      7482      7485
      7481      7479      7482      7483      7481      7479      7482      7484
      7481      7479      7482      7485      7482      7485      7488      7489
      7482      7485      7488      7490      7482      7485      7488      7491
      7483      7482      7485      7486      7483      7482      7485      7487
      7483      7482      7485      7488      7484      7482      7485      7486
      7484      7482      7485      7487      7484      7482      7485      7488
      7485      7488      7491      7492      7485      7488      7491      7493
      7485      7488      7491      7494      7486      7485      7488      7489
      7486      7485      7488      7490      7486      7485      7488      7491
      7487      7485      7488      7489      7487      7485      7488      7490
      7487      7485      7488      7491      7488      7491      7494      7495
      7488      7491      7494      7496      7488      7491      7494      7497
      7489      7488      7491      7492      7489      7488      7491      7493
      7489      7488      7491      7494      7490      7488      7491      7492
      7490      7488      7491      7493      7490      7488      7491      7494
      7492      7491      7494      7495      7492      7491      7494      7496
      7492      7491      7494      7497      7493      7491      7494      7495
      7493      7491      7494      7496      7493      7491      7494      7497
      7498      7502      7505      7506      7498      7502      7505      7536
      7498      7544      7541      7536      7498      7544      7541      7542
      7498      7544      7541      7543      7499      7498      7500      7501
      7499      7498      7502      7503      7499      7498      7502      7504
      7499      7498      7502      7505      7499      7498      7544      7541
      7499      7498      7544      7545      7499      7498      7544      7546
      7500      7498      7502      7503      7500      7498      7502      7504
      7500      7498      7502      7505      7500      7498      7544      7541
      7500      7498      7544      7545      7500      7498      7544      7546
      7501      7500      7498      7502      7501      7500      7498      7544
      7502      7498      7544      7541      7502      7498      7544      7545
      7502      7498      7544      7546      7502      7505      7506      7507
      7502      7505      7506      7508      7502      7505      7536      7534
      7502      7505      7536      7537      7502      7505      7536      7541
      7503      7502      7498      7544      7503      7502      7505      7506
      7503      7502      7505      7536      7504      7502      7498      7544
      7504      7502      7505      7506      7504      7502      7505      7536
      7505      7502      7498      7544      7505      7506      7508      7509
      7505      7506      7508      7510      7505      7506      7508      7511
      7505      7536      7534      7511      7505      7536      7534      7531
      7505      7536      7534      7535      7505      7536      7537      7538
      7505      7536      7537      7539      7505      7536      7537      7540
      7505      7536      7541      7542      7505      7536      7541      7543
      7505      7536      7541      7544      7506      7505      7536      7534
      7506      7505      7536      7537      7506      7505      7536      7541
      7506      7508      7511      7512      7506      7508      7511      7513
      7506      7508      7511      7534      7507      7506      7505      7536
      7507      7506      7508      7509      7507      7506      7508      7510
      7507      7506      7508      7511      7508      7506      7505      7536
      7508      7511      7513      7514      7508      7511      7513      7515
      7508      7511      7513      7523      7508      7511      7534      7531
      7508      7511      7534      7535      7508      7511      7534      7536
      7509      7508      7511      7512      7509      7508      7511      7513
      7509      7508      7511      7534      7510      7508      7511      7512
      7510      7508      7511      7513      7510      7508      7511      7534
      7511      7513      7515      7516      7511      7513      7515      7517
      7511      7513      7515      7518      7511      7513      7523      7521
      7511      7513      7523      7524      7511      7513      7523      7528
      7511      7534      7531      7528      7511      7534      7531      7532
      7511      7534      7531      7533      7511      7534      7536      7537
      7511      7534      7536      7541      7512      7511      7513      7514
      7512      7511      7513      7515      7512      7511      7513      7523
      7512      7511      7534      7531      7512      7511      7534      7535
      7512      7511      7534      7536      7513      7511      7534      7531
      7513      7511      7534      7535      7513      7511      7534      7536
      7513      7515      7518      7519      7513      7515      7518      7520
      7513      7515      7518      7521      7513      7523      7521      7518
      7513      7523      7521      7522      7513      7523      7521      7547
      7513      7523      7524      7525      7513      7523      7524      7526
      7513      7523      7524      7527      7513      7523      7528      7529
      7513      7523      7528      7530      7513      7523      7528      7531
      7514      7513      7511      7534      7514      7513      7515      7516
      7514      7513      7515      7517      7514      7513      7515      7518
      7514      7513      7523      7521      7514      7513      7523      7524
      7514      7513      7523      7528      7515      7513      7511      7534
      7515      7513      7523      7521      7515      7513      7523      7524
      7515      7513      7523      7528      7515      7518      7521      7522
      7515      7518      7521      7523      7515      7518      7521      7547
      7516      7515      7513      7523      7516      7515      7518      7519
      7516      7515      7518      7520      7516      7515      7518      7521
      7517      7515      7513      7523      7517      7515      7518      7519
      7517      7515      7518      7520      7517      7515      7518      7521
      7518      7515      7513      7523      7518      7521      7523      7524
      7518      7521      7523      7528      7518      7521      7547      7548
      7518      7521      7547      7549      7518      7521      7547      7553
      7519      7518      7521      7522      7519      7518      7521      7523
      7519      7518      7521      7547      7520      7518      7521      7522
      7520      7518      7521      7523      7520      7518      7521      7547
      7521      7523      7524      7525      7521      7523      7524      7526
      7521      7523      7524      7527      7521      7523      7528      7529
      7521      7523      7528      7530      7521      7523      7528      7531
      7521      7547      7549      7550      7521      7547      7549      7551
      7521      7547      7549      7552      7521      7547      7553      7554
      7521      7547      7553      7555      7521      7547      7553      7556
      7522      7521      7523      7524      7522      7521      7523      7528
      7522      7521      7547      7548      7522      7521      7547      7549
      7522      7521      7547      7553      7523      7513      7511      7534
      7523      7521      7547      7548      7523      7521      7547      7549
      7523      7521      7547      7553      7523      7528      7531      7532
      7523      7528      7531      7533      7523      7528      7531      7534
      7524      7523      7521      7547      7524      7523      7528      7529
      7524      7523      7528      7530      7524      7523      7528      7531
      7525      7524      7523      7528      7526      7524      7523      7528
      7527      7524      7523      7528      7528      7523      7521      7547
      7528      7531      7534      7535      7528      7531      7534      7536
      7529      7528      7531      7532      7529      7528      7531      7533
      7529      7528      7531      7534      7530      7528      7531      7532
      7530      7528      7531      7533      7530      7528      7531      7534
      7531      7534      7536      7537      7531      7534      7536      7541
      7532      7531      7534      7535      7532      7531      7534      7536
      7533      7531      7534      7535      7533      7531      7534      7536
      7534      7536      7537      7538      7534      7536      7537      7539
      7534      7536      7537      7540      7534      7536      7541      7542
      7534      7536      7541      7543      7534      7536      7541      7544
      7535      7534      7536      7537      7535      7534      7536      7541
      7536      7541      7544      7545      7536      7541      7544      7546
      7537      7536      7541      7542      7537      7536      7541      7543
      7537      7536      7541      7544      7538      7537      7536      7541
      7539      7537      7536      7541      7540      7537      7536      7541
      7542      7541      7544      7545      7542      7541      7544      7546
      7543      7541      7544      7545      7543      7541      7544      7546
      7547      7553      7556      7557      7547      7553      7556      7558
      7547      7553      7556      7559      7548      7547      7549      7550
      7548      7547      7549      7551      7548      7547      7549      7552
      7548      7547      7553      7554      7548      7547      7553      7555
      7548      7547      7553      7556      7549      7547      7553      7554
      7549      7547      7553      7555      7549      7547      7553      7556
      7550      7549      7547      7553      7551      7549      7547      7553
      7552      7549      7547      7553      7553      7556      7559      7560
      7553      7556      7559      7561      7553      7556      7559      7562
      7554      7553      7556      7557      7554      7553      7556      7558
      7554      7553      7556      7559      7555      7553      7556      7557
      7555      7553      7556      7558      7555      7553      7556      7559
      7556      7559      7562      7563      7556      7559      7562      7564
      7556      7559      7562      7568      7557      7556      7559      7560
      7557      7556      7559      7561      7557      7556      7559      7562
      7558      7556      7559      7560      7558      7556      7559      7561
      7558      7556      7559      7562      7559      7562      7564      7565
      7559      7562      7564      7566      7559      7562      7564      7567
      7559      7562      7568      7569      7559      7562      7568      7570
      7559      7562      7568      7571      7560      7559      7562      7563
      7560      7559      7562      7564      7560      7559      7562      7568
      7561      7559      7562      7563      7561      7559      7562      7564
      7561      7559      7562      7568      7563      7562      7564      7565
      7563      7562      7564      7566      7563      7562      7564      7567
      7563      7562      7568      7569      7563      7562      7568      7570
      7563      7562      7568      7571      7564      7562      7568      7569
      7564      7562      7568      7570      7564      7562      7568      7571
      7565      7564      7562      7568      7566      7564      7562      7568
      7567      7564      7562      7568      7572      7585      7588      7589
      7572      7585      7588      7590      7572      7585      7588      7595
      7573      7572      7577      7578      7573      7572      7577      7579
      7573      7572      7577      7580      7573      7572      7581      7582
      7573      7572      7581      7583      7573      7572      7581      7584
      7573      7572      7585      7586      7573      7572      7585      7587
      7573      7572      7585      7588      7574      7573      7572      7577
      7574      7573      7572      7581      7574      7573      7572      7585
      7575      7573      7572      7577      7575      7573      7572      7581
      7575      7573      7572      7585      7576      7573      7572      7577
      7576      7573      7572      7581      7576      7573      7572      7585
      7577      7572      7581      7582      7577      7572      7581      7583
      7577      7572      7581      7584      7577      7572      7585      7586
      7577      7572      7585      7587      7577      7572      7585      7588
      7578      7577      7572      7581      7578      7577      7572      7585
      7579      7577      7572      7581      7579      7577      7572      7585
      7580      7577      7572      7581      7580      7577      7572      7585
      7581      7572      7585      7586      7581      7572      7585      7587
      7581      7572      7585      7588      7582      7581      7572      7585
      7583      7581      7572      7585      7584      7581      7572      7585
      7585      7588      7595      7591      7586      7585      7588      7589
      7586      7585      7588      7590      7586      7585      7588      7595
      7587      7585      7588      7589      7587      7585      7588      7590
      7587      7585      7588      7595      7588      7595      7591      7592
      7588      7595      7591      7593      7588      7595      7591      7594
      7589      7588      7595      7591      7590      7588      7595      7591
      7591      7594      7596      7597      7591      7594      7596      7598
      7591      7594      7596      7601      7592      7591      7594      7596
      7593      7591      7594      7596      7594      7596      7601      7599
      7594      7596      7601      7602      7594      7596      7601      7603
      7595      7591      7594      7596      7596      7601      7599      7600
      7596      7601      7599      7651      7596      7601      7603      7604
      7596      7601      7603      7605      7596      7601      7603      7607
      7597      7596      7601      7599      7597      7596      7601      7602
      7597      7596      7601      7603      7598      7596      7601      7599
      7598      7596      7601      7602      7598      7596      7601      7603
      7599      7601      7603      7604      7599      7601      7603      7605
      7599      7601      7603      7607      7599      7651      7653      7654
      7599      7651      7653      7655      7599      7651      7653      7656
      7600      7599      7601      7602      7600      7599      7601      7603
      7600      7599      7651      7652      7600      7599      7651      7653
      7601      7599      7651      7652      7601      7599      7651      7653
      7601      7603      7605      7606      7601      7603      7607      7608
      7601      7603      7607      7609      7602      7601      7599      7651
      7602      7601      7603      7604      7602      7601      7603      7605
      7602      7601      7603      7607      7603      7601      7599      7651
      7603      7607      7609      7610      7603      7607      7609      7611
      7604      7603      7605      7606      7604      7603      7607      7608
      7604      7603      7607      7609      7605      7603      7607      7608
      7605      7603      7607      7609      7606      7605      7603      7607
      7607      7609      7611      7612      7607      7609      7611      7613
      7607      7609      7611      7614      7608      7607      7609      7610
      7608      7607      7609      7611      7609      7611      7614      7615
      7609      7611      7614      7616      7609      7611      7614      7617
      7610      7609      7611      7612      7610      7609      7611      7613
      7610      7609      7611      7614      7611      7614      7617      7618
      7611      7614      7617      7619      7611      7614      7617      7620
      7612      7611      7614      7615      7612      7611      7614      7616
      7612      7611      7614      7617      7613      7611      7614      7615
      7613      7611      7614      7616      7613      7611      7614      7617
      7614      7617      7620      7621      7614      7617      7620      7622
      7614      7617      7620      7623      7615      7614      7617      7618
      7615      7614      7617      7619      7615      7614      7617      7620
      7616      7614      7617      7618      7616      7614      7617      7619
      7616      7614      7617      7620      7617      7620      7623      7624
      7617      7620      7623      7625      7617      7620      7623      7626
      7618      7617      7620      7621      7618      7617      7620      7622
      7618      7617      7620      7623      7619      7617      7620      7621
      7619      7617      7620      7622      7619      7617      7620      7623
      7620      7623      7626      7627      7620      7623      7626      7628
      7620      7623      7626      7629      7621      7620      7623      7624
      7621      7620      7623      7625      7621      7620      7623      7626
      7622      7620      7623      7624      7622      7620      7623      7625
      7622      7620      7623      7626      7623      7626      7629      7630
      7623      7626      7629      7631      7623      7626      7629      7632
      7624      7623      7626      7627      7624      7623      7626      7628
      7624      7623      7626      7629      7625      7623      7626      7627
      7625      7623      7626      7628      7625      7623      7626      7629
      7626      7629      7632      7633      7626      7629      7632      7634
      7626      7629      7632      7635      7627      7626      7629      7630
      7627      7626      7629      7631      7627      7626      7629      7632
      7628      7626      7629      7630      7628      7626      7629      7631
      7628      7626      7629      7632      7629      7632      7635      7636
      7629      7632      7635      7637      7629      7632      7635      7638
      7630      7629      7632      7633      7630      7629      7632      7634
      7630      7629      7632      7635      7631      7629      7632      7633
      7631      7629      7632      7634      7631      7629      7632      7635
      7632      7635      7638      7639      7632      7635      7638      7640
      7632      7635      7638      7641      7633      7632      7635      7636
      7633      7632      7635      7637      7633      7632      7635      7638
      7634      7632      7635      7636      7634      7632      7635      7637
      7634      7632      7635      7638      7635      7638      7641      7642
      7635      7638      7641      7643      7635      7638      7641      7644
      7636      7635      7638      7639      7636      7635      7638      7640
      7636      7635      7638      7641      7637      7635      7638      7639
      7637      7635      7638      7640      7637      7635      7638      7641
      7638      7641      7644      7645      7638      7641      7644      7646
      7638      7641      7644      7647      7639      7638      7641      7642
      7639      7638      7641      7643      7639      7638      7641      7644
      7640      7638      7641      7642      7640      7638      7641      7643
      7640      7638      7641      7644      7641      7644      7647      7648
      7641      7644      7647      7649      7641      7644      7647      7650
      7642      7641      7644      7645      7642      7641      7644      7646
      7642      7641      7644      7647      7643      7641      7644      7645
      7643      7641      7644      7646      7643      7641      7644      7647
      7645      7644      7647      7648      7645      7644      7647      7649
      7645      7644      7647      7650      7646      7644      7647      7648
      7646      7644      7647      7649      7646      7644      7647      7650
      7651      7653      7656      7657      7651      7653      7656      7658
      7651      7653      7656      7659      7652      7651      7653      7654
      7652      7651      7653      7655      7652      7651      7653      7656
      7653      7656      7659      7660      7653      7656      7659      7661
      7653      7656      7659      7662      7654      7653      7656      7657
      7654      7653      7656      7658      7654      7653      7656      7659
      7655      7653      7656      7657      7655      7653      7656      7658
      7655      7653      7656      7659      7656      7659      7662      7663
      7656      7659      7662      7664      7656      7659      7662      7665
      7657      7656      7659      7660      7657      7656      7659      7661
      7657      7656      7659      7662      7658      7656      7659      7660
      7658      7656      7659      7661      7658      7656      7659      7662
      7659      7662      7665      7666      7659      7662      7665      7667
      7659      7662      7665      7668      7660      7659      7662      7663
      7660      7659      7662      7664      7660      7659      7662      7665
      7661      7659      7662      7663      7661      7659      7662      7664
      7661      7659      7662      7665      7662      7665      7668      7669
      7662      7665      7668      7670      7662      7665      7668      7671
      7663      7662      7665      7666      7663      7662      7665      7667
      7663      7662      7665      7668      7664      7662      7665      7666
      7664      7662      7665      7667      7664      7662      7665      7668
      7665      7668      7671      7672      7665      7668      7671      7673
      7665      7668      7671      7674      7666      7665      7668      7669
      7666      7665      7668      7670      7666      7665      7668      7671
      7667      7665      7668      7669      7667      7665      7668      7670
      7667      7665      7668      7671      7668      7671      7674      7675
      7668      7671      7674      7676      7669      7668      7671      7672
      7669      7668      7671      7673      7669      7668      7671      7674
      7670      7668      7671      7672      7670      7668      7671      7673
      7670      7668      7671      7674      7671      7674      7676      7677
      7671      7674      7676      7678      7672      7671      7674      7675
      7672      7671      7674      7676      7673      7671      7674      7675
      7673      7671      7674      7676      7674      7676      7678      7679
      7674      7676      7678      7680      7674      7676      7678      7681
      7675      7674      7676      7677      7675      7674      7676      7678
      7676      7678      7681      7682      7676      7678      7681      7683
      7676      7678      7681      7684      7677      7676      7678      7679
      7677      7676      7678      7680      7677      7676      7678      7681
      7678      7681      7684      7685      7678      7681      7684      7686
      7678      7681      7684      7687      7679      7678      7681      7682
      7679      7678      7681      7683      7679      7678      7681      7684
      7680      7678      7681      7682      7680      7678      7681      7683
      7680      7678      7681      7684      7681      7684      7687      7688
      7681      7684      7687      7689      7681      7684      7687      7690
      7682      7681      7684      7685      7682      7681      7684      7686
      7682      7681      7684      7687      7683      7681      7684      7685
      7683      7681      7684      7686      7683      7681      7684      7687
      7684      7687      7690      7691      7684      7687      7690      7692
      7684      7687      7690      7693      7685      7684      7687      7688
      7685      7684      7687      7689      7685      7684      7687      7690
      7686      7684      7687      7688      7686      7684      7687      7689
      7686      7684      7687      7690      7687      7690      7693      7694
      7687      7690      7693      7695      7687      7690      7693      7696
      7688      7687      7690      7691      7688      7687      7690      7692
      7688      7687      7690      7693      7689      7687      7690      7691
      7689      7687      7690      7692      7689      7687      7690      7693
      7690      7693      7696      7697      7690      7693      7696      7698
      7690      7693      7696      7699      7691      7690      7693      7694
      7691      7690      7693      7695      7691      7690      7693      7696
      7692      7690      7693      7694      7692      7690      7693      7695
      7692      7690      7693      7696      7693      7696      7699      7700
      7693      7696      7699      7701      7693      7696      7699      7702
      7694      7693      7696      7697      7694      7693      7696      7698
      7694      7693      7696      7699      7695      7693      7696      7697
      7695      7693      7696      7698      7695      7693      7696      7699
      7697      7696      7699      7700      7697      7696      7699      7701
      7697      7696      7699      7702      7698      7696      7699      7700
      7698      7696      7699      7701      7698      7696      7699      7702
      7703      7707      7710      7711      7703      7707      7710      7712
      7703      7707      7710      7716      7704      7703      7707      7708
      7704      7703      7707      7709      7704      7703      7707      7710
      7705      7703      7707      7708      7705      7703      7707      7709
      7705      7703      7707      7710      7706      7703      7707      7708
      7706      7703      7707      7709      7706      7703      7707      7710
      7707      7710      7716      7713      7708      7707      7710      7711
      7708      7707      7710      7712      7708      7707      7710      7716
      7709      7707      7710      7711      7709      7707      7710      7712
      7709      7707      7710      7716      7710      7716      7713      7714
      7710      7716      7713      7715      7710      7716      7713      7717
      7711      7710      7716      7713      7712      7710      7716      7713
      7713      7717      7718      7719      7713      7717      7718      7720
      7713      7717      7718      7721      7714      7713      7717      7718
      7715      7713      7717      7718      7716      7713      7717      7718
      7717      7718      7721      7722      7717      7718      7721      7723
      7717      7718      7721      7729      7718      7721      7723      7724
      7718      7721      7729      7730      7718      7721      7729      7731
      7718      7721      7729      7732      7719      7718      7721      7722
      7719      7718      7721      7723      7719      7718      7721      7729
      7720      7718      7721      7722      7720      7718      7721      7723
      7720      7718      7721      7729      7721      7723      7724      7725
      7721      7723      7724      7726      7721      7729      7732      7733
      7722      7721      7723      7724      7722      7721      7729      7730
      7722      7721      7729      7731      7722      7721      7729      7732
      7723      7721      7729      7730      7723      7721      7729      7731
      7723      7721      7729      7732      7723      7724      7726      7727
      7723      7724      7726      7728      7723      7724      7726      7738
      7724      7723      7721      7729      7724      7726      7738      7739
      7724      7726      7738      7740      7724      7726      7738      7741
      7725      7724      7726      7727      7725      7724      7726      7728
      7725      7724      7726      7738      7726      7738      7741      7742
      7726      7738      7741      7743      7726      7738      7741      7744
      7727      7726      7738      7739      7727      7726      7738      7740
      7727      7726      7738      7741      7728      7726      7738      7739
      7728      7726      7738      7740      7728      7726      7738      7741
      7729      7732      7733      7734      7729      7732      7733      7735
      7730      7729      7732      7733      7731      7729      7732      7733
      7732      7733      7735      7736      7732      7733      7735      7737
      7732      7733      7735      7785      7733      7735      7785      7786
      7733      7735      7785      7787      7733      7735      7785      7788
      7734      7733      7735      7736      7734      7733      7735      7737
      7734      7733      7735      7785      7735      7785      7788      7789
      7735      7785      7788      7790      7735      7785      7788      7791
      7736      7735      7785      7786      7736      7735      7785      7787
      7736      7735      7785      7788      7737      7735      7785      7786
      7737      7735      7785      7787      7737      7735      7785      7788
      7738      7741      7744      7745      7738      7741      7744      7746
      7739      7738      7741      7742      7739      7738      7741      7743
      7739      7738      7741      7744      7740      7738      7741      7742
      7740      7738      7741      7743      7740      7738      7741      7744
      7741      7744      7746      7747      7741      7744      7746      7748
      7742      7741      7744      7745      7742      7741      7744      7746
      7743      7741      7744      7745      7743      7741      7744      7746
      7744      7746      7748      7749      7744      7746      7748      7750
      7744      7746      7748      7751      7745      7744      7746      7747
      7745      7744      7746      7748      7746      7748      7751      7752
      7746      7748      7751      7753      7747      7746      7748      7749
      7747      7746      7748      7750      7747      7746      7748      7751
      7748      7751      7753      7754      7748      7751      7753      7755
      7749      7748      7751      7752      7749      7748      7751      7753
      7750      7748      7751      7752      7750      7748      7751      7753
      7751      7753      7755      7756      7751      7753      7755      7757
      7751      7753      7755      7758      7752      7751      7753      7754
      7752      7751      7753      7755      7753      7755      7758      7759
      7753      7755      7758      7760      7754      7753      7755      7756
      7754      7753      7755      7757      7754      7753      7755      7758
      7755      7758      7760      7761      7755      7758      7760      7762
      7756      7755      7758      7759      7756      7755      7758      7760
      7757      7755      7758      7759      7757      7755      7758      7760
      7758      7760      7762      7763      7758      7760      7762      7764
      7758      7760      7762      7765      7759      7758      7760      7761
      7759      7758      7760      7762      7760      7762      7765      7766
      7760      7762      7765      7767      7761      7760      7762      7763
      7761      7760      7762      7764      7761      7760      7762      7765
      7762      7765      7767      7768      7762      7765      7767      7769
      7763      7762      7765      7766      7763      7762      7765      7767
      7764      7762      7765      7766      7764      7762      7765      7767
      7765      7767      7769      7770      7765      7767      7769      7771
      7765      7767      7769      7772      7766      7765      7767      7768
      7766      7765      7767      7769      7767      7769      7772      7773
      7767      7769      7772      7774      7767      7769      7772      7775
      7768      7767      7769      7770      7768      7767      7769      7771
      7768      7767      7769      7772      7769      7772      7775      7776
      7769      7772      7775      7777      7769      7772      7775      7778
      7770      7769      7772      7773      7770      7769      7772      7774
      7770      7769      7772      7775      7771      7769      7772      7773
      7771      7769      7772      7774      7771      7769      7772      7775
      7772      7775      7778      7779      7772      7775      7778      7780
      7772      7775      7778      7781      7773      7772      7775      7776
      7773      7772      7775      7777      7773      7772      7775      7778
      7774      7772      7775      7776      7774      7772      7775      7777
      7774      7772      7775      7778      7775      7778      7781      7782
      7775      7778      7781      7783      7775      7778      7781      7784
      7776      7775      7778      7779      7776      7775      7778      7780
      7776      7775      7778      7781      7777      7775      7778      7779
      7777      7775      7778      7780      7777      7775      7778      7781
      7779      7778      7781      7782      7779      7778      7781      7783
      7779      7778      7781      7784      7780      7778      7781      7782
      7780      7778      7781      7783      7780      7778      7781      7784
      7785      7788      7791      7792      7785      7788      7791      7793
      7785      7788      7791      7794      7786      7785      7788      7789
      7786      7785      7788      7790      7786      7785      7788      7791
      7787      7785      7788      7789      7787      7785      7788      7790
      7787      7785      7788      7791      7788      7791      7794      7795
      7788      7791      7794      7796      7788      7791      7794      7797
      7789      7788      7791      7792      7789      7788      7791      7793
      7789      7788      7791      7794      7790      7788      7791      7792
      7790      7788      7791      7793      7790      7788      7791      7794
      7791      7794      7797      7798      7791      7794      7797      7799
      7791      7794      7797      7800      7792      7791      7794      7795
      7792      7791      7794      7796      7792      7791      7794      7797
      7793      7791      7794      7795      7793      7791      7794      7796
      7793      7791      7794      7797      7794      7797      7800      7801
      7794      7797      7800      7802      7794      7797      7800      7803
      7795      7794      7797      7798      7795      7794      7797      7799
      7795      7794      7797      7800      7796      7794      7797      7798
      7796      7794      7797      7799      7796      7794      7797      7800
      7797      7800      7803      7804      7797      7800      7803      7805
      7797      7800      7803      7806      7798      7797      7800      7801
      7798      7797      7800      7802      7798      7797      7800      7803
      7799      7797      7800      7801      7799      7797      7800      7802
      7799      7797      7800      7803      7800      7803      7806      7807
      7800      7803      7806      7808      7800      7803      7806      7809
      7801      7800      7803      7804      7801      7800      7803      7805
      7801      7800      7803      7806      7802      7800      7803      7804
      7802      7800      7803      7805      7802      7800      7803      7806
      7803      7806      7809      7810      7803      7806      7809      7811
      7803      7806      7809      7812      7804      7803      7806      7807
      7804      7803      7806      7808      7804      7803      7806      7809
      7805      7803      7806      7807      7805      7803      7806      7808
      7805      7803      7806      7809      7806      7809      7812      7813
      7806      7809      7812      7814      7806      7809      7812      7815
      7807      7806      7809      7810      7807      7806      7809      7811
      7807      7806      7809      7812      7808      7806      7809      7810
      7808      7806      7809      7811      7808      7806      7809      7812
      7809      7812      7815      7816      7809      7812      7815      7817
      7809      7812      7815      7818      7810      7809      7812      7813
      7810      7809      7812      7814      7810      7809      7812      7815
      7811      7809      7812      7813      7811      7809      7812      7814
      7811      7809      7812      7815      7812      7815      7818      7819
      7812      7815      7818      7820      7812      7815      7818      7821
      7813      7812      7815      7816      7813      7812      7815      7817
      7813      7812      7815      7818      7814      7812      7815      7816
      7814      7812      7815      7817      7814      7812      7815      7818
      7815      7818      7821      7822      7815      7818      7821      7823
      7815      7818      7821      7824      7816      7815      7818      7819
      7816      7815      7818      7820      7816      7815      7818      7821
      7817      7815      7818      7819      7817      7815      7818      7820
      7817      7815      7818      7821      7818      7821      7824      7825
      7818      7821      7824      7826      7818      7821      7824      7827
      7819      7818      7821      7822      7819      7818      7821      7823
      7819      7818      7821      7824      7820      7818      7821      7822
      7820      7818      7821      7823      7820      7818      7821      7824
      7821      7824      7827      7828      7821      7824      7827      7829
      7821      7824      7827      7830      7822      7821      7824      7825
      7822      7821      7824      7826      7822      7821      7824      7827
      7823      7821      7824      7825      7823      7821      7824      7826
      7823      7821      7824      7827      7824      7827      7830      7831
      7824      7827      7830      7832      7824      7827      7830      7833
      7825      7824      7827      7828      7825      7824      7827      7829
      7825      7824      7827      7830      7826      7824      7827      7828
      7826      7824      7827      7829      7826      7824      7827      7830
      7828      7827      7830      7831      7828      7827      7830      7832
      7828      7827      7830      7833      7829      7827      7830      7831
      7829      7827      7830      7832      7829      7827      7830      7833
      7834      7838      7841      7842      7834      7838      7841      7872
      7834      7880      7877      7872      7834      7880      7877      7878
      7834      7880      7877      7879      7835      7834      7836      7837
      7835      7834      7838      7839      7835      7834      7838      7840
      7835      7834      7838      7841      7835      7834      7880      7877
      7835      7834      7880      7881      7835      7834      7880      7882
      7836      7834      7838      7839      7836      7834      7838      7840
      7836      7834      7838      7841      7836      7834      7880      7877
      7836      7834      7880      7881      7836      7834      7880      7882
      7837      7836      7834      7838      7837      7836      7834      7880
      7838      7834      7880      7877      7838      7834      7880      7881
      7838      7834      7880      7882      7838      7841      7842      7843
      7838      7841      7842      7844      7838      7841      7872      7870
      7838      7841      7872      7873      7838      7841      7872      7877
      7839      7838      7834      7880      7839      7838      7841      7842
      7839      7838      7841      7872      7840      7838      7834      7880
      7840      7838      7841      7842      7840      7838      7841      7872
      7841      7838      7834      7880      7841      7842      7844      7845
      7841      7842      7844      7846      7841      7842      7844      7847
      7841      7872      7870      7847      7841      7872      7870      7867
      7841      7872      7870      7871      7841      7872      7873      7874
      7841      7872      7873      7875      7841      7872      7873      7876
      7841      7872      7877      7878      7841      7872      7877      7879
      7841      7872      7877      7880      7842      7841      7872      7870
      7842      7841      7872      7873      7842      7841      7872      7877
      7842      7844      7847      7848      7842      7844      7847      7849
      7842      7844      7847      7870      7843      7842      7841      7872
      7843      7842      7844      7845      7843      7842      7844      7846
      7843      7842      7844      7847      7844      7842      7841      7872
      7844      7847      7849      7850      7844      7847      7849      7851
      7844      7847      7849      7859      7844      7847      7870      7867
      7844      7847      7870      7871      7844      7847      7870      7872
      7845      7844      7847      7848      7845      7844      7847      7849
      7845      7844      7847      7870      7846      7844      7847      7848
      7846      7844      7847      7849      7846      7844      7847      7870
      7847      7849      7851      7852      7847      7849      7851      7853
      7847      7849      7851      7854      7847      7849      7859      7857
      7847      7849      7859      7860      7847      7849      7859      7864
      7847      7870      7867      7864      7847      7870      7867      7868
      7847      7870      7867      7869      7847      7870      7872      7873
      7847      7870      7872      7877      7848      7847      7849      7850
      7848      7847      7849      7851      7848      7847      7849      7859
      7848      7847      7870      7867      7848      7847      7870      7871
      7848      7847      7870      7872      7849      7847      7870      7867
      7849      7847      7870      7871      7849      7847      7870      7872
      7849      7851      7854      7855      7849      7851      7854      7856
      7849      7851      7854      7857      7849      7859      7857      7854
      7849      7859      7857      7858      7849      7859      7857      7883
      7849      7859      7860      7861      7849      7859      7860      7862
      7849      7859      7860      7863      7849      7859      7864      7865
      7849      7859      7864      7866      7849      7859      7864      7867
      7850      7849      7847      7870      7850      7849      7851      7852
      7850      7849      7851      7853      7850      7849      7851      7854
      7850      7849      7859      7857      7850      7849      7859      7860
      7850      7849      7859      7864      7851      7849      7847      7870
      7851      7849      7859      7857      7851      7849      7859      7860
      7851      7849      7859      7864      7851      7854      7857      7858
      7851      7854      7857      7859      7851      7854      7857      7883
      7852      7851      7849      7859      7852      7851      7854      7855
      7852      7851      7854      7856      7852      7851      7854      7857
      7853      7851      7849      7859      7853      7851      7854      7855
      7853      7851      7854      7856      7853      7851      7854      7857
      7854      7851      7849      7859      7854      7857      7859      7860
      7854      7857      7859      7864      7854      7857      7883      7884
      7854      7857      7883      7885      7854      7857      7883      7889
      7855      7854      7857      7858      7855      7854      7857      7859
      7855      7854      7857      7883      7856      7854      7857      7858
      7856      7854      7857      7859      7856      7854      7857      7883
      7857      7859      7860      7861      7857      7859      7860      7862
      7857      7859      7860      7863      7857      7859      7864      7865
      7857      7859      7864      7866      7857      7859      7864      7867
      7857      7883      7885      7886      7857      7883      7885      7887
      7857      7883      7885      7888      7857      7883      7889      7890
      7857      7883      7889      7891      7857      7883      7889      7892
      7858      7857      7859      7860      7858      7857      7859      7864
      7858      7857      7883      7884      7858      7857      7883      7885
      7858      7857      7883      7889      7859      7849      7847      7870
      7859      7857      7883      7884      7859      7857      7883      7885
      7859      7857      7883      7889      7859      7864      7867      7868
      7859      7864      7867      7869      7859      7864      7867      7870
      7860      7859      7857      7883      7860      7859      7864      7865
      7860      7859      7864      7866      7860      7859      7864      7867
      7861      7860      7859      7864      7862      7860      7859      7864
      7863      7860      7859      7864      7864      7859      7857      7883
      7864      7867      7870      7871      7864      7867      7870      7872
      7865      7864      7867      7868      7865      7864      7867      7869
      7865      7864      7867      7870      7866      7864      7867      7868
      7866      7864      7867      7869      7866      7864      7867      7870
      7867      7870      7872      7873      7867      7870      7872      7877
      7868      7867      7870      7871      7868      7867      7870      7872
      7869      7867      7870      7871      7869      7867      7870      7872
      7870      7872      7873      7874      7870      7872      7873      7875
      7870      7872      7873      7876      7870      7872      7877      7878
      7870      7872      7877      7879      7870      7872      7877      7880
      7871      7870      7872      7873      7871      7870      7872      7877
      7872      7877      7880      7881      7872      7877      7880      7882
      7873      7872      7877      7878      7873      7872      7877      7879
      7873      7872      7877      7880      7874      7873      7872      7877
      7875      7873      7872      7877      7876      7873      7872      7877
      7878      7877      7880      7881      7878      7877      7880      7882
      7879      7877      7880      7881      7879      7877      7880      7882
      7883      7889      7892      7893      7883      7889      7892      7894
      7883      7889      7892      7895      7884      7883      7885      7886
      7884      7883      7885      7887      7884      7883      7885      7888
      7884      7883      7889      7890      7884      7883      7889      7891
      7884      7883      7889      7892      7885      7883      7889      7890
      7885      7883      7889      7891      7885      7883      7889      7892
      7886      7885      7883      7889      7887      7885      7883      7889
      7888      7885      7883      7889      7889      7892      7895      7896
      7889      7892      7895      7897      7889      7892      7895      7898
      7890      7889      7892      7893      7890      7889      7892      7894
      7890      7889      7892      7895      7891      7889      7892      7893
      7891      7889      7892      7894      7891      7889      7892      7895
      7892      7895      7898      7899      7892      7895      7898      7900
      7892      7895      7898      7904      7893      7892      7895      7896
      7893      7892      7895      7897      7893      7892      7895      7898
      7894      7892      7895      7896      7894      7892      7895      7897
      7894      7892      7895      7898      7895      7898      7900      7901
      7895      7898      7900      7902      7895      7898      7900      7903
      7895      7898      7904      7905      7895      7898      7904      7906
      7895      7898      7904      7907      7896      7895      7898      7899
      7896      7895      7898      7900      7896      7895      7898      7904
      7897      7895      7898      7899      7897      7895      7898      7900
      7897      7895      7898      7904      7899      7898      7900      7901
      7899      7898      7900      7902      7899      7898      7900      7903
      7899      7898      7904      7905      7899      7898      7904      7906
      7899      7898      7904      7907      7900      7898      7904      7905
      7900      7898      7904      7906      7900      7898      7904      7907
      7901      7900      7898      7904      7902      7900      7898      7904
      7903      7900      7898      7904      7908      7909      7924      7925
      7908      7909      7924      7926      7908      7909      7924      7930
      7909      7908      7912      7913      7909      7908      7912      7914
      7909      7908      7912      7915      7909      7908      7916      7917
      7909      7908      7916      7918      7909      7908      7916      7919
      7909      7908      7920      7921      7909      7908      7920      7922
      7909      7908      7920      7923      7909      7924      7930      7927
      7910      7909      7908      7912      7910      7909      7908      7916
      7910      7909      7908      7920      7910      7909      7924      7925
      7910      7909      7924      7926      7910      7909      7924      7930
      7911      7909      7908      7912      7911      7909      7908      7916
      7911      7909      7908      7920      7911      7909      7924      7925
      7911      7909      7924      7926      7911      7909      7924      7930
      7912      7908      7909      7924      7912      7908      7916      7917
      7912      7908      7916      7918      7912      7908      7916      7919
      7912      7908      7920      7921      7912      7908      7920      7922
      7912      7908      7920      7923      7913      7912      7908      7916
      7913      7912      7908      7920      7914      7912      7908      7916
      7914      7912      7908      7920      7915      7912      7908      7916
      7915      7912      7908      7920      7916      7908      7909      7924
      7916      7908      7920      7921      7916      7908      7920      7922
      7916      7908      7920      7923      7917      7916      7908      7920
      7918      7916      7908      7920      7919      7916      7908      7920
      7920      7908      7909      7924      7924      7930      7927      7928
      7924      7930      7927      7929      7924      7930      7927      7931
      7925      7924      7930      7927      7926      7924      7930      7927
      7927      7931      7932      7933      7927      7931      7932      7934
      7927      7931      7932      7935      7928      7927      7931      7932
      7929      7927      7931      7932      7930      7927      7931      7932
      7931      7932      7935      7936      7931      7932      7935      7937
      7931      7932      7935      7943      7932      7935      7937      7938
      7932      7935      7943      7944      7932      7935      7943      7945
      7932      7935      7943      7946      7933      7932      7935      7936
      7933      7932      7935      7937      7933      7932      7935      7943
      7934      7932      7935      7936      7934      7932      7935      7937
      7934      7932      7935      7943      7935      7937      7938      7939
      7935      7937      7938      7940      7935      7943      7946      7947
      7936      7935      7937      7938      7936      7935      7943      7944
      7936      7935      7943      7945      7936      7935      7943      7946
      7937      7935      7943      7944      7937      7935      7943      7945
      7937      7935      7943      7946      7937      7938      7940      7941
      7937      7938      7940      7942      7937      7938      7940      7952
      7938      7937      7935      7943      7938      7940      7952      7953
      7938      7940      7952      7954      7938      7940      7952      7955
      7939      7938      7940      7941      7939      7938      7940      7942
      7939      7938      7940      7952      7940      7952      7955      7956
      7940      7952      7955      7957      7940      7952      7955      7958
      7941      7940      7952      7953      7941      7940      7952      7954
      7941      7940      7952      7955      7942      7940      7952      7953
      7942      7940      7952      7954      7942      7940      7952      7955
      7943      7946      7947      7948      7943      7946      7947      7949
      7944      7943      7946      7947      7945      7943      7946      7947
      7946      7947      7949      7950      7946      7947      7949      7951
      7946      7947      7949      7999      7947      7949      7999      8000
      7947      7949      7999      8001      7947      7949      7999      8002
      7948      7947      7949      7950      7948      7947      7949      7951
      7948      7947      7949      7999      7949      7999      8002      8003
      7949      7999      8002      8004      7949      7999      8002      8005
      7950      7949      7999      8000      7950      7949      7999      8001
      7950      7949      7999      8002      7951      7949      7999      8000
      7951      7949      7999      8001      7951      7949      7999      8002
      7952      7955      7958      7959      7952      7955      7958      7960
      7953      7952      7955      7956      7953      7952      7955      7957
      7953      7952      7955      7958      7954      7952      7955      7956
      7954      7952      7955      7957      7954      7952      7955      7958
      7955      7958      7960      7961      7955      7958      7960      7962
      7956      7955      7958      7959      7956      7955      7958      7960
      7957      7955      7958      7959      7957      7955      7958      7960
      7958      7960      7962      7963      7958      7960      7962      7964
      7958      7960      7962      7965      7959      7958      7960      7961
      7959      7958      7960      7962      7960      7962      7965      7966
      7960      7962      7965      7967      7961      7960      7962      7963
      7961      7960      7962      7964      7961      7960      7962      7965
      7962      7965      7967      7968      7962      7965      7967      7969
      7963      7962      7965      7966      7963      7962      7965      7967
      7964      7962      7965      7966      7964      7962      7965      7967
      7965      7967      7969      7970      7965      7967      7969      7971
      7965      7967      7969      7972      7966      7965      7967      7968
      7966      7965      7967      7969      7967      7969      7972      7973
      7967      7969      7972      7974      7968      7967      7969      7970
      7968      7967      7969      7971      7968      7967      7969      7972
      7969      7972      7974      7975      7969      7972      7974      7976
      7970      7969      7972      7973      7970      7969      7972      7974
      7971      7969      7972      7973      7971      7969      7972      7974
      7972      7974      7976      7977      7972      7974      7976      7978
      7972      7974      7976      7979      7973      7972      7974      7975
      7973      7972      7974      7976      7974      7976      7979      7980
      7974      7976      7979      7981      7975      7974      7976      7977
      7975      7974      7976      7978      7975      7974      7976      7979
      7976      7979      7981      7982      7976      7979      7981      7983
      7977      7976      7979      7980      7977      7976      7979      7981
      7978      7976      7979      7980      7978      7976      7979      7981
      7979      7981      7983      7984      7979      7981      7983      7985
      7979      7981      7983      7986      7980      7979      7981      7982
      7980      7979      7981      7983      7981      7983      7986      7987
      7981      7983      7986      7988      7981      7983      7986      7989
      7982      7981      7983      7984      7982      7981      7983      7985
      7982      7981      7983      7986      7983      7986      7989      7990
      7983      7986      7989      7991      7983      7986      7989      7992
      7984      7983      7986      7987      7984      7983      7986      7988
      7984      7983      7986      7989      7985      7983      7986      7987
      7985      7983      7986      7988      7985      7983      7986      7989
      7986      7989      7992      7993      7986      7989      7992      7994
      7986      7989      7992      7995      7987      7986      7989      7990
      7987      7986      7989      7991      7987      7986      7989      7992
      7988      7986      7989      7990      7988      7986      7989      7991
      7988      7986      7989      7992      7989      7992      7995      7996
      7989      7992      7995      7997      7989      7992      7995      7998
      7990      7989      7992      7993      7990      7989      7992      7994
      7990      7989      7992      7995      7991      7989      7992      7993
      7991      7989      7992      7994      7991      7989      7992      7995
      7993      7992      7995      7996      7993      7992      7995      7997
      7993      7992      7995      7998      7994      7992      7995      7996
      7994      7992      7995      7997      7994      7992      7995      7998
      7999      8002      8005      8006      7999      8002      8005      8007
      7999      8002      8005      8008      8000      7999      8002      8003
      8000      7999      8002      8004      8000      7999      8002      8005
      8001      7999      8002      8003      8001      7999      8002      8004
      8001      7999      8002      8005      8002      8005      8008      8009
      8002      8005      8008      8010      8002      8005      8008      8011
      8003      8002      8005      8006      8003      8002      8005      8007
      8003      8002      8005      8008      8004      8002      8005      8006
      8004      8002      8005      8007      8004      8002      8005      8008
      8005      8008      8011      8012      8005      8008      8011      8013
      8005      8008      8011      8014      8006      8005      8008      8009
      8006      8005      8008      8010      8006      8005      8008      8011
      8007      8005      8008      8009      8007      8005      8008      8010
      8007      8005      8008      8011      8008      8011      8014      8015
      8008      8011      8014      8016      8008      8011      8014      8017
      8009      8008      8011      8012      8009      8008      8011      8013
      8009      8008      8011      8014      8010      8008      8011      8012
      8010      8008      8011      8013      8010      8008      8011      8014
      8011      8014      8017      8018      8011      8014      8017      8019
      8011      8014      8017      8020      8012      8011      8014      8015
      8012      8011      8014      8016      8012      8011      8014      8017
      8013      8011      8014      8015      8013      8011      8014      8016
      8013      8011      8014      8017      8014      8017      8020      8021
      8014      8017      8020      8022      8014      8017      8020      8023
      8015      8014      8017      8018      8015      8014      8017      8019
      8015      8014      8017      8020      8016      8014      8017      8018
      8016      8014      8017      8019      8016      8014      8017      8020
      8017      8020      8023      8024      8017      8020      8023      8025
      8017      8020      8023      8026      8018      8017      8020      8021
      8018      8017      8020      8022      8018      8017      8020      8023
      8019      8017      8020      8021      8019      8017      8020      8022
      8019      8017      8020      8023      8020      8023      8026      8027
      8020      8023      8026      8028      8020      8023      8026      8029
      8021      8020      8023      8024      8021      8020      8023      8025
      8021      8020      8023      8026      8022      8020      8023      8024
      8022      8020      8023      8025      8022      8020      8023      8026
      8023      8026      8029      8030      8023      8026      8029      8031
      8023      8026      8029      8032      8024      8023      8026      8027
      8024      8023      8026      8028      8024      8023      8026      8029
      8025      8023      8026      8027      8025      8023      8026      8028
      8025      8023      8026      8029      8026      8029      8032      8033
      8026      8029      8032      8034      8026      8029      8032      8035
      8027      8026      8029      8030      8027      8026      8029      8031
      8027      8026      8029      8032      8028      8026      8029      8030
      8028      8026      8029      8031      8028      8026      8029      8032
      8029      8032      8035      8036      8029      8032      8035      8037
      8029      8032      8035      8038      8030      8029      8032      8033
      8030      8029      8032      8034      8030      8029      8032      8035
      8031      8029      8032      8033      8031      8029      8032      8034
      8031      8029      8032      8035      8032      8035      8038      8039
      8032      8035      8038      8040      8032      8035      8038      8041
      8033      8032      8035      8036      8033      8032      8035      8037
      8033      8032      8035      8038      8034      8032      8035      8036
      8034      8032      8035      8037      8034      8032      8035      8038
      8035      8038      8041      8042      8035      8038      8041      8043
      8035      8038      8041      8044      8036      8035      8038      8039
      8036      8035      8038      8040      8036      8035      8038      8041
      8037      8035      8038      8039      8037      8035      8038      8040
      8037      8035      8038      8041      8038      8041      8044      8045
      8038      8041      8044      8046      8038      8041      8044      8047
      8039      8038      8041      8042      8039      8038      8041      8043
      8039      8038      8041      8044      8040      8038      8041      8042
      8040      8038      8041      8043      8040      8038      8041      8044
      8042      8041      8044      8045      8042      8041      8044      8046
      8042      8041      8044      8047      8043      8041      8044      8045
      8043      8041      8044      8046      8043      8041      8044      8047
      8048      8061      8064      8065      8048      8061      8064      8066
      8048      8061      8064      8071      8049      8048      8053      8054
      8049      8048      8053      8055      8049      8048      8053      8056
      8049      8048      8057      8058      8049      8048      8057      8059
      8049      8048      8057      8060      8049      8048      8061      8062
      8049      8048      8061      8063      8049      8048      8061      8064
      8050      8049      8048      8053      8050      8049      8048      8057
      8050      8049      8048      8061      8051      8049      8048      8053
      8051      8049      8048      8057      8051      8049      8048      8061
      8052      8049      8048      8053      8052      8049      8048      8057
      8052      8049      8048      8061      8053      8048      8057      8058
      8053      8048      8057      8059      8053      8048      8057      8060
      8053      8048      8061      8062      8053      8048      8061      8063
      8053      8048      8061      8064      8054      8053      8048      8057
      8054      8053      8048      8061      8055      8053      8048      8057
      8055      8053      8048      8061      8056      8053      8048      8057
      8056      8053      8048      8061      8057      8048      8061      8062
      8057      8048      8061      8063      8057      8048      8061      8064
      8058      8057      8048      8061      8059      8057      8048      8061
      8060      8057      8048      8061      8061      8064      8071      8067
      8062      8061      8064      8065      8062      8061      8064      8066
      8062      8061      8064      8071      8063      8061      8064      8065
      8063      8061      8064      8066      8063      8061      8064      8071
      8064      8071      8067      8068      8064      8071      8067      8069
      8064      8071      8067      8070      8065      8064      8071      8067
      8066      8064      8071      8067      8067      8070      8072      8073
      8067      8070      8072      8074      8067      8070      8072      8077
      8068      8067      8070      8072      8069      8067      8070      8072
      8070      8072      8077      8075      8070      8072      8077      8078
      8070      8072      8077      8079      8071      8067      8070      8072
      8072      8077      8075      8076      8072      8077      8075      8127
      8072      8077      8079      8080      8072      8077      8079      8081
      8072      8077      8079      8083      8073      8072      8077      8075
      8073      8072      8077      8078      8073      8072      8077      8079
      8074      8072      8077      8075      8074      8072      8077      8078
      8074      8072      8077      8079      8075      8077      8079      8080
      8075      8077      8079      8081      8075      8077      8079      8083
      8075      8127      8129      8130      8075      8127      8129      8131
      8075      8127      8129      8132      8076      8075      8077      8078
      8076      8075      8077      8079      8076      8075      8127      8128
      8076      8075      8127      8129      8077      8075      8127      8128
      8077      8075      8127      8129      8077      8079      8081      8082
      8077      8079      8083      8084      8077      8079      8083      8085
      8078      8077      8075      8127      8078      8077      8079      8080
      8078      8077      8079      8081      8078      8077      8079      8083
      8079      8077      8075      8127      8079      8083      8085      8086
      8079      8083      8085      8087      8080      8079      8081      8082
      8080      8079      8083      8084      8080      8079      8083      8085
      8081      8079      8083      8084      8081      8079      8083      8085
      8082      8081      8079      8083      8083      8085      8087      8088
      8083      8085      8087      8089      8083      8085      8087      8090
      8084      8083      8085      8086      8084      8083      8085      8087
      8085      8087      8090      8091      8085      8087      8090      8092
      8085      8087      8090      8093      8086      8085      8087      8088
      8086      8085      8087      8089      8086      8085      8087      8090
      8087      8090      8093      8094      8087      8090      8093      8095
      8087      8090      8093      8096      8088      8087      8090      8091
      8088      8087      8090      8092      8088      8087      8090      8093
      8089      8087      8090      8091      8089      8087      8090      8092
      8089      8087      8090      8093      8090      8093      8096      8097
      8090      8093      8096      8098      8090      8093      8096      8099
      8091      8090      8093      8094      8091      8090      8093      8095
      8091      8090      8093      8096      8092      8090      8093      8094
      8092      8090      8093      8095      8092      8090      8093      8096
      8093      8096      8099      8100      8093      8096      8099      8101
      8093      8096      8099      8102      8094      8093      8096      8097
      8094      8093      8096      8098      8094      8093      8096      8099
      8095      8093      8096      8097      8095      8093      8096      8098
      8095      8093      8096      8099      8096      8099      8102      8103
      8096      8099      8102      8104      8096      8099      8102      8105
      8097      8096      8099      8100      8097      8096      8099      8101
      8097      8096      8099      8102      8098      8096      8099      8100
      8098      8096      8099      8101      8098      8096      8099      8102
      8099      8102      8105      8106      8099      8102      8105      8107
      8099      8102      8105      8108      8100      8099      8102      8103
      8100      8099      8102      8104      8100      8099      8102      8105
      8101      8099      8102      8103      8101      8099      8102      8104
      8101      8099      8102      8105      8102      8105      8108      8109
      8102      8105      8108      8110      8102      8105      8108      8111
      8103      8102      8105      8106      8103      8102      8105      8107
      8103      8102      8105      8108      8104      8102      8105      8106
      8104      8102      8105      8107      8104      8102      8105      8108
      8105      8108      8111      8112      8105      8108      8111      8113
      8105      8108      8111      8114      8106      8105      8108      8109
      8106      8105      8108      8110      8106      8105      8108      8111
      8107      8105      8108      8109      8107      8105      8108      8110
      8107      8105      8108      8111      8108      8111      8114      8115
      8108      8111      8114      8116      8108      8111      8114      8117
      8109      8108      8111      8112      8109      8108      8111      8113
      8109      8108      8111      8114      8110      8108      8111      8112
      8110      8108      8111      8113      8110      8108      8111      8114
      8111      8114      8117      8118      8111      8114      8117      8119
      8111      8114      8117      8120      8112      8111      8114      8115
      8112      8111      8114      8116      8112      8111      8114      8117
      8113      8111      8114      8115      8113      8111      8114      8116
      8113      8111      8114      8117      8114      8117      8120      8121
      8114      8117      8120      8122      8114      8117      8120      8123
      8115      8114      8117      8118      8115      8114      8117      8119
      8115      8114      8117      8120      8116      8114      8117      8118
      8116      8114      8117      8119      8116      8114      8117      8120
      8117      8120      8123      8124      8117      8120      8123      8125
      8117      8120      8123      8126      8118      8117      8120      8121
      8118      8117      8120      8122      8118      8117      8120      8123
      8119      8117      8120      8121      8119      8117      8120      8122
      8119      8117      8120      8123      8121      8120      8123      8124
      8121      8120      8123      8125      8121      8120      8123      8126
      8122      8120      8123      8124      8122      8120      8123      8125
      8122      8120      8123      8126      8127      8129      8132      8133
      8127      8129      8132      8134      8127      8129      8132      8135
      8128      8127      8129      8130      8128      8127      8129      8131
      8128      8127      8129      8132      8129      8132      8135      8136
      8129      8132      8135      8137      8129      8132      8135      8138
      8130      8129      8132      8133      8130      8129      8132      8134
      8130      8129      8132      8135      8131      8129      8132      8133
      8131      8129      8132      8134      8131      8129      8132      8135
      8132      8135      8138      8139      8132      8135      8138      8140
      8132      8135      8138      8141      8133      8132      8135      8136
      8133      8132      8135      8137      8133      8132      8135      8138
      8134      8132      8135      8136      8134      8132      8135      8137
      8134      8132      8135      8138      8135      8138      8141      8142
      8135      8138      8141      8143      8135      8138      8141      8144
      8136      8135      8138      8139      8136      8135      8138      8140
      8136      8135      8138      8141      8137      8135      8138      8139
      8137      8135      8138      8140      8137      8135      8138      8141
      8138      8141      8144      8145      8138      8141      8144      8146
      8138      8141      8144      8147      8139      8138      8141      8142
      8139      8138      8141      8143      8139      8138      8141      8144
      8140      8138      8141      8142      8140      8138      8141      8143
      8140      8138      8141      8144      8141      8144      8147      8148
      8141      8144      8147      8149      8141      8144      8147      8150
      8142      8141      8144      8145      8142      8141      8144      8146
      8142      8141      8144      8147      8143      8141      8144      8145
      8143      8141      8144      8146      8143      8141      8144      8147
      8144      8147      8150      8151      8144      8147      8150      8152
      8145      8144      8147      8148      8145      8144      8147      8149
      8145      8144      8147      8150      8146      8144      8147      8148
      8146      8144      8147      8149      8146      8144      8147      8150
      8147      8150      8152      8153      8147      8150      8152      8154
      8148      8147      8150      8151      8148      8147      8150      8152
      8149      8147      8150      8151      8149      8147      8150      8152
      8150      8152      8154      8155      8150      8152      8154      8156
      8150      8152      8154      8157      8151      8150      8152      8153
      8151      8150      8152      8154      8152      8154      8157      8158
      8152      8154      8157      8159      8152      8154      8157      8160
      8153      8152      8154      8155      8153      8152      8154      8156
      8153      8152      8154      8157      8154      8157      8160      8161
      8154      8157      8160      8162      8154      8157      8160      8163
      8155      8154      8157      8158      8155      8154      8157      8159
      8155      8154      8157      8160      8156      8154      8157      8158
      8156      8154      8157      8159      8156      8154      8157      8160
      8157      8160      8163      8164      8157      8160      8163      8165
      8157      8160      8163      8166      8158      8157      8160      8161
      8158      8157      8160      8162      8158      8157      8160      8163
      8159      8157      8160      8161      8159      8157      8160      8162
      8159      8157      8160      8163      8160      8163      8166      8167
      8160      8163      8166      8168      8160      8163      8166      8169
      8161      8160      8163      8164      8161      8160      8163      8165
      8161      8160      8163      8166      8162      8160      8163      8164
      8162      8160      8163      8165      8162      8160      8163      8166
      8163      8166      8169      8170      8163      8166      8169      8171
      8163      8166      8169      8172      8164      8163      8166      8167
      8164      8163      8166      8168      8164      8163      8166      8169
      8165      8163      8166      8167      8165      8163      8166      8168
      8165      8163      8166      8169      8166      8169      8172      8173
      8166      8169      8172      8174      8166      8169      8172      8175
      8167      8166      8169      8170      8167      8166      8169      8171
      8167      8166      8169      8172      8168      8166      8169      8170
      8168      8166      8169      8171      8168      8166      8169      8172
      8169      8172      8175      8176      8169      8172      8175      8177
      8169      8172      8175      8178      8170      8169      8172      8173
      8170      8169      8172      8174      8170      8169      8172      8175
      8171      8169      8172      8173      8171      8169      8172      8174
      8171      8169      8172      8175      8173      8172      8175      8176
      8173      8172      8175      8177      8173      8172      8175      8178
      8174      8172      8175      8176      8174      8172      8175      8177
      8174      8172      8175      8178      8179      8192      8195      8196
      8179      8192      8195      8197      8179      8192      8195      8202
      8180      8179      8184      8185      8180      8179      8184      8186
      8180      8179      8184      8187      8180      8179      8188      8189
      8180      8179      8188      8190      8180      8179      8188      8191
      8180      8179      8192      8193      8180      8179      8192      8194
      8180      8179      8192      8195      8181      8180      8179      8184
      8181      8180      8179      8188      8181      8180      8179      8192
      8182      8180      8179      8184      8182      8180      8179      8188
      8182      8180      8179      8192      8183      8180      8179      8184
      8183      8180      8179      8188      8183      8180      8179      8192
      8184      8179      8188      8189      8184      8179      8188      8190
      8184      8179      8188      8191      8184      8179      8192      8193
      8184      8179      8192      8194      8184      8179      8192      8195
      8185      8184      8179      8188      8185      8184      8179      8192
      8186      8184      8179      8188      8186      8184      8179      8192
      8187      8184      8179      8188      8187      8184      8179      8192
      8188      8179      8192      8193      8188      8179      8192      8194
      8188      8179      8192      8195      8189      8188      8179      8192
      8190      8188      8179      8192      8191      8188      8179      8192
      8192      8195      8202      8198      8193      8192      8195      8196
      8193      8192      8195      8197      8193      8192      8195      8202
      8194      8192      8195      8196      8194      8192      8195      8197
      8194      8192      8195      8202      8195      8202      8198      8199
      8195      8202      8198      8200      8195      8202      8198      8201
      8196      8195      8202      8198      8197      8195      8202      8198
      8198      8201      8203      8204      8198      8201      8203      8205
      8198      8201      8203      8208      8199      8198      8201      8203
      8200      8198      8201      8203      8201      8203      8208      8206
      8201      8203      8208      8209      8201      8203      8208      8210
      8202      8198      8201      8203      8203      8208      8206      8207
      8203      8208      8206      8258      8203      8208      8210      8211
      8203      8208      8210      8212      8203      8208      8210      8214
      8204      8203      8208      8206      8204      8203      8208      8209
      8204      8203      8208      8210      8205      8203      8208      8206
      8205      8203      8208      8209      8205      8203      8208      8210
      8206      8208      8210      8211      8206      8208      8210      8212
      8206      8208      8210      8214      8206      8258      8260      8261
      8206      8258      8260      8262      8206      8258      8260      8263
      8207      8206      8208      8209      8207      8206      8208      8210
      8207      8206      8258      8259      8207      8206      8258      8260
      8208      8206      8258      8259      8208      8206      8258      8260
      8208      8210      8212      8213      8208      8210      8214      8215
      8208      8210      8214      8216      8209      8208      8206      8258
      8209      8208      8210      8211      8209      8208      8210      8212
      8209      8208      8210      8214      8210      8208      8206      8258
      8210      8214      8216      8217      8210      8214      8216      8218
      8211      8210      8212      8213      8211      8210      8214      8215
      8211      8210      8214      8216      8212      8210      8214      8215
      8212      8210      8214      8216      8213      8212      8210      8214
      8214      8216      8218      8219      8214      8216      8218      8220
      8214      8216      8218      8221      8215      8214      8216      8217
      8215      8214      8216      8218      8216      8218      8221      8222
      8216      8218      8221      8223      8216      8218      8221      8224
      8217      8216      8218      8219      8217      8216      8218      8220
      8217      8216      8218      8221      8218      8221      8224      8225
      8218      8221      8224      8226      8218      8221      8224      8227
      8219      8218      8221      8222      8219      8218      8221      8223
      8219      8218      8221      8224      8220      8218      8221      8222
      8220      8218      8221      8223      8220      8218      8221      8224
      8221      8224      8227      8228      8221      8224      8227      8229
      8221      8224      8227      8230      8222      8221      8224      8225
      8222      8221      8224      8226      8222      8221      8224      8227
      8223      8221      8224      8225      8223      8221      8224      8226
      8223      8221      8224      8227      8224      8227      8230      8231
      8224      8227      8230      8232      8224      8227      8230      8233
      8225      8224      8227      8228      8225      8224      8227      8229
      8225      8224      8227      8230      8226      8224      8227      8228
      8226      8224      8227      8229      8226      8224      8227      8230
      8227      8230      8233      8234      8227      8230      8233      8235
      8227      8230      8233      8236      8228      8227      8230      8231
      8228      8227      8230      8232      8228      8227      8230      8233
      8229      8227      8230      8231      8229      8227      8230      8232
      8229      8227      8230      8233      8230      8233      8236      8237
      8230      8233      8236      8238      8230      8233      8236      8239
      8231      8230      8233      8234      8231      8230      8233      8235
      8231      8230      8233      8236      8232      8230      8233      8234
      8232      8230      8233      8235      8232      8230      8233      8236
      8233      8236      8239      8240      8233      8236      8239      8241
      8233      8236      8239      8242      8234      8233      8236      8237
      8234      8233      8236      8238      8234      8233      8236      8239
      8235      8233      8236      8237      8235      8233      8236      8238
      8235      8233      8236      8239      8236      8239      8242      8243
      8236      8239      8242      8244      8236      8239      8242      8245
      8237      8236      8239      8240      8237      8236      8239      8241
      8237      8236      8239      8242      8238      8236      8239      8240
      8238      8236      8239      8241      8238      8236      8239      8242
      8239      8242      8245      8246      8239      8242      8245      8247
      8239      8242      8245      8248      8240      8239      8242      8243
      8240      8239      8242      8244      8240      8239      8242      8245
      8241      8239      8242      8243      8241      8239      8242      8244
      8241      8239      8242      8245      8242      8245      8248      8249
      8242      8245      8248      8250      8242      8245      8248      8251
      8243      8242      8245      8246      8243      8242      8245      8247
      8243      8242      8245      8248      8244      8242      8245      8246
      8244      8242      8245      8247      8244      8242      8245      8248
      8245      8248      8251      8252      8245      8248      8251      8253
      8245      8248      8251      8254      8246      8245      8248      8249
      8246      8245      8248      8250      8246      8245      8248      8251
      8247      8245      8248      8249      8247      8245      8248      8250
      8247      8245      8248      8251      8248      8251      8254      8255
      8248      8251      8254      8256      8248      8251      8254      8257
      8249      8248      8251      8252      8249      8248      8251      8253
      8249      8248      8251      8254      8250      8248      8251      8252
      8250      8248      8251      8253      8250      8248      8251      8254
      8252      8251      8254      8255      8252      8251      8254      8256
      8252      8251      8254      8257      8253      8251      8254      8255
      8253      8251      8254      8256      8253      8251      8254      8257
      8258      8260      8263      8264      8258      8260      8263      8265
      8258      8260      8263      8266      8259      8258      8260      8261
      8259      8258      8260      8262      8259      8258      8260      8263
      8260      8263      8266      8267      8260      8263      8266      8268
      8260      8263      8266      8269      8261      8260      8263      8264
      8261      8260      8263      8265      8261      8260      8263      8266
      8262      8260      8263      8264      8262      8260      8263      8265
      8262      8260      8263      8266      8263      8266      8269      8270
      8263      8266      8269      8271      8263      8266      8269      8272
      8264      8263      8266      8267      8264      8263      8266      8268
      8264      8263      8266      8269      8265      8263      8266      8267
      8265      8263      8266      8268      8265      8263      8266      8269
      8266      8269      8272      8273      8266      8269      8272      8274
      8266      8269      8272      8275      8267      8266      8269      8270
      8267      8266      8269      8271      8267      8266      8269      8272
      8268      8266      8269      8270      8268      8266      8269      8271
      8268      8266      8269      8272      8269      8272      8275      8276
      8269      8272      8275      8277      8269      8272      8275      8278
      8270      8269      8272      8273      8270      8269      8272      8274
      8270      8269      8272      8275      8271      8269      8272      8273
      8271      8269      8272      8274      8271      8269      8272      8275
      8272      8275      8278      8279      8272      8275      8278      8280
      8272      8275      8278      8281      8273      8272      8275      8276
      8273      8272      8275      8277      8273      8272      8275      8278
      8274      8272      8275      8276      8274      8272      8275      8277
      8274      8272      8275      8278      8275      8278      8281      8282
      8275      8278      8281      8283      8276      8275      8278      8279
      8276      8275      8278      8280      8276      8275      8278      8281
      8277      8275      8278      8279      8277      8275      8278      8280
      8277      8275      8278      8281      8278      8281      8283      8284
      8278      8281      8283      8285      8279      8278      8281      8282
      8279      8278      8281      8283      8280      8278      8281      8282
      8280      8278      8281      8283      8281      8283      8285      8286
      8281      8283      8285      8287      8281      8283      8285      8288
      8282      8281      8283      8284      8282      8281      8283      8285
      8283      8285      8288      8289      8283      8285      8288      8290
      8283      8285      8288      8291      8284      8283      8285      8286
      8284      8283      8285      8287      8284      8283      8285      8288
      8285      8288      8291      8292      8285      8288      8291      8293
      8285      8288      8291      8294      8286      8285      8288      8289
      8286      8285      8288      8290      8286      8285      8288      8291
      8287      8285      8288      8289      8287      8285      8288      8290
      8287      8285      8288      8291      8288      8291      8294      8295
      8288      8291      8294      8296      8288      8291      8294      8297
      8289      8288      8291      8292      8289      8288      8291      8293
      8289      8288      8291      8294      8290      8288      8291      8292
      8290      8288      8291      8293      8290      8288      8291      8294
      8291      8294      8297      8298      8291      8294      8297      8299
      8291      8294      8297      8300      8292      8291      8294      8295
      8292      8291      8294      8296      8292      8291      8294      8297
      8293      8291      8294      8295      8293      8291      8294      8296
      8293      8291      8294      8297      8294      8297      8300      8301
      8294      8297      8300      8302      8294      8297      8300      8303
      8295      8294      8297      8298      8295      8294      8297      8299
      8295      8294      8297      8300      8296      8294      8297      8298
      8296      8294      8297      8299      8296      8294      8297      8300
      8297      8300      8303      8304      8297      8300      8303      8305
      8297      8300      8303      8306      8298      8297      8300      8301
      8298      8297      8300      8302      8298      8297      8300      8303
      8299      8297      8300      8301      8299      8297      8300      8302
      8299      8297      8300      8303      8300      8303      8306      8307
      8300      8303      8306      8308      8300      8303      8306      8309
      8301      8300      8303      8304      8301      8300      8303      8305
      8301      8300      8303      8306      8302      8300      8303      8304
      8302      8300      8303      8305      8302      8300      8303      8306
      8304      8303      8306      8307      8304      8303      8306      8308
      8304      8303      8306      8309      8305      8303      8306      8307
      8305      8303      8306      8308      8305      8303      8306      8309
      8310      8323      8326      8327      8310      8323      8326      8328
      8310      8323      8326      8333      8311      8310      8315      8316
      8311      8310      8315      8317      8311      8310      8315      8318
      8311      8310      8319      8320      8311      8310      8319      8321
      8311      8310      8319      8322      8311      8310      8323      8324
      8311      8310      8323      8325      8311      8310      8323      8326
      8312      8311      8310      8315      8312      8311      8310      8319
      8312      8311      8310      8323      8313      8311      8310      8315
      8313      8311      8310      8319      8313      8311      8310      8323
      8314      8311      8310      8315      8314      8311      8310      8319
      8314      8311      8310      8323      8315      8310      8319      8320
      8315      8310      8319      8321      8315      8310      8319      8322
      8315      8310      8323      8324      8315      8310      8323      8325
      8315      8310      8323      8326      8316      8315      8310      8319
      8316      8315      8310      8323      8317      8315      8310      8319
      8317      8315      8310      8323      8318      8315      8310      8319
      8318      8315      8310      8323      8319      8310      8323      8324
      8319      8310      8323      8325      8319      8310      8323      8326
      8320      8319      8310      8323      8321      8319      8310      8323
      8322      8319      8310      8323      8323      8326      8333      8329
      8324      8323      8326      8327      8324      8323      8326      8328
      8324      8323      8326      8333      8325      8323      8326      8327
      8325      8323      8326      8328      8325      8323      8326      8333
      8326      8333      8329      8330      8326      8333      8329      8331
      8326      8333      8329      8332      8327      8326      8333      8329
      8328      8326      8333      8329      8329      8332      8334      8335
      8329      8332      8334      8336      8329      8332      8334      8339
      8330      8329      8332      8334      8331      8329      8332      8334
      8332      8334      8339      8337      8332      8334      8339      8340
      8332      8334      8339      8341      8333      8329      8332      8334
      8334      8339      8337      8338      8334      8339      8337      8389
      8334      8339      8341      8342      8334      8339      8341      8343
      8334      8339      8341      8345      8335      8334      8339      8337
      8335      8334      8339      8340      8335      8334      8339      8341
      8336      8334      8339      8337      8336      8334      8339      8340
      8336      8334      8339      8341      8337      8339      8341      8342
      8337      8339      8341      8343      8337      8339      8341      8345
      8337      8389      8391      8392      8337      8389      8391      8393
      8337      8389      8391      8394      8338      8337      8339      8340
      8338      8337      8339      8341      8338      8337      8389      8390
      8338      8337      8389      8391      8339      8337      8389      8390
      8339      8337      8389      8391      8339      8341      8343      8344
      8339      8341      8345      8346      8339      8341      8345      8347
      8340      8339      8337      8389      8340      8339      8341      8342
      8340      8339      8341      8343      8340      8339      8341      8345
      8341      8339      8337      8389      8341      8345      8347      8348
      8341      8345      8347      8349      8342      8341      8343      8344
      8342      8341      8345      8346      8342      8341      8345      8347
      8343      8341      8345      8346      8343      8341      8345      8347
      8344      8343      8341      8345      8345      8347      8349      8350
      8345      8347      8349      8351      8345      8347      8349      8352
      8346      8345      8347      8348      8346      8345      8347      8349
      8347      8349      8352      8353      8347      8349      8352      8354
      8347      8349      8352      8355      8348      8347      8349      8350
      8348      8347      8349      8351      8348      8347      8349      8352
      8349      8352      8355      8356      8349      8352      8355      8357
      8349      8352      8355      8358      8350      8349      8352      8353
      8350      8349      8352      8354      8350      8349      8352      8355
      8351      8349      8352      8353      8351      8349      8352      8354
      8351      8349      8352      8355      8352      8355      8358      8359
      8352      8355      8358      8360      8352      8355      8358      8361
      8353      8352      8355      8356      8353      8352      8355      8357
      8353      8352      8355      8358      8354      8352      8355      8356
      8354      8352      8355      8357      8354      8352      8355      8358
      8355      8358      8361      8362      8355      8358      8361      8363
      8355      8358      8361      8364      8356      8355      8358      8359
      8356      8355      8358      8360      8356      8355      8358      8361
      8357      8355      8358      8359      8357      8355      8358      8360
      8357      8355      8358      8361      8358      8361      8364      8365
      8358      8361      8364      8366      8358      8361      8364      8367
      8359      8358      8361      8362      8359      8358      8361      8363
      8359      8358      8361      8364      8360      8358      8361      8362
      8360      8358      8361      8363      8360      8358      8361      8364
      8361      8364      8367      8368      8361      8364      8367      8369
      8361      8364      8367      8370      8362      8361      8364      8365
      8362      8361      8364      8366      8362      8361      8364      8367
      8363      8361      8364      8365      8363      8361      8364      8366
      8363      8361      8364      8367      8364      8367      8370      8371
      8364      8367      8370      8372      8364      8367      8370      8373
      8365      8364      8367      8368      8365      8364      8367      8369
      8365      8364      8367      8370      8366      8364      8367      8368
      8366      8364      8367      8369      8366      8364      8367      8370
      8367      8370      8373      8374      8367      8370      8373      8375
      8367      8370      8373      8376      8368      8367      8370      8371
      8368      8367      8370      8372      8368      8367      8370      8373
      8369      8367      8370      8371      8369      8367      8370      8372
      8369      8367      8370      8373      8370      8373      8376      8377
      8370      8373      8376      8378      8370      8373      8376      8379
      8371      8370      8373      8374      8371      8370      8373      8375
      8371      8370      8373      8376      8372      8370      8373      8374
      8372      8370      8373      8375      8372      8370      8373      8376
      8373      8376      8379      8380      8373      8376      8379      8381
      8373      8376      8379      8382      8374      8373      8376      8377
      8374      8373      8376      8378      8374      8373      8376      8379
      8375      8373      8376      8377      8375      8373      8376      8378
      8375      8373      8376      8379      8376      8379      8382      8383
      8376      8379      8382      8384      8376      8379      8382      8385
      8377      8376      8379      8380      8377      8376      8379      8381
      8377      8376      8379      8382      8378      8376      8379      8380
      8378      8376      8379      8381      8378      8376      8379      8382
      8379      8382      8385      8386      8379      8382      8385      8387
      8379      8382      8385      8388      8380      8379      8382      8383
      8380      8379      8382      8384      8380      8379      8382      8385
      8381      8379      8382      8383      8381      8379      8382      8384
      8381      8379      8382      8385      8383      8382      8385      8386
      8383      8382      8385      8387      8383      8382      8385      8388
      8384      8382      8385      8386      8384      8382      8385      8387
      8384      8382      8385      8388      8389      8391      8394      8395
      8389      8391      8394      8396      8389      8391      8394      8397
      8390      8389      8391      8392      8390      8389      8391      8393
      8390      8389      8391      8394      8391      8394      8397      8398
      8391      8394      8397      8399      8391      8394      8397      8400
      8392      8391      8394      8395      8392      8391      8394      8396
      8392      8391      8394      8397      8393      8391      8394      8395
      8393      8391      8394      8396      8393      8391      8394      8397
      8394      8397      8400      8401      8394      8397      8400      8402
      8394      8397      8400      8403      8395      8394      8397      8398
      8395      8394      8397      8399      8395      8394      8397      8400
      8396      8394      8397      8398      8396      8394      8397      8399
      8396      8394      8397      8400      8397      8400      8403      8404
      8397      8400      8403      8405      8397      8400      8403      8406
      8398      8397      8400      8401      8398      8397      8400      8402
      8398      8397      8400      8403      8399      8397      8400      8401
      8399      8397      8400      8402      8399      8397      8400      8403
      8400      8403      8406      8407      8400      8403      8406      8408
      8400      8403      8406      8409      8401      8400      8403      8404
      8401      8400      8403      8405      8401      8400      8403      8406
      8402      8400      8403      8404      8402      8400      8403      8405
      8402      8400      8403      8406      8403      8406      8409      8410
      8403      8406      8409      8411      8403      8406      8409      8412
      8404      8403      8406      8407      8404      8403      8406      8408
      8404      8403      8406      8409      8405      8403      8406      8407
      8405      8403      8406      8408      8405      8403      8406      8409
      8406      8409      8412      8413      8406      8409      8412      8414
      8407      8406      8409      8410      8407      8406      8409      8411
      8407      8406      8409      8412      8408      8406      8409      8410
      8408      8406      8409      8411      8408      8406      8409      8412
      8409      8412      8414      8415      8409      8412      8414      8416
      8410      8409      8412      8413      8410      8409      8412      8414
      8411      8409      8412      8413      8411      8409      8412      8414
      8412      8414      8416      8417      8412      8414      8416      8418
      8412      8414      8416      8419      8413      8412      8414      8415
      8413      8412      8414      8416      8414      8416      8419      8420
      8414      8416      8419      8421      8414      8416      8419      8422
      8415      8414      8416      8417      8415      8414      8416      8418
      8415      8414      8416      8419      8416      8419      8422      8423
      8416      8419      8422      8424      8416      8419      8422      8425
      8417      8416      8419      8420      8417      8416      8419      8421
      8417      8416      8419      8422      8418      8416      8419      8420
      8418      8416      8419      8421      8418      8416      8419      8422
      8419      8422      8425      8426      8419      8422      8425      8427
      8419      8422      8425      8428      8420      8419      8422      8423
      8420      8419      8422      8424      8420      8419      8422      8425
      8421      8419      8422      8423      8421      8419      8422      8424
      8421      8419      8422      8425      8422      8425      8428      8429
      8422      8425      8428      8430      8422      8425      8428      8431
      8423      8422      8425      8426      8423      8422      8425      8427
      8423      8422      8425      8428      8424      8422      8425      8426
      8424      8422      8425      8427      8424      8422      8425      8428
      8425      8428      8431      8432      8425      8428      8431      8433
      8425      8428      8431      8434      8426      8425      8428      8429
      8426      8425      8428      8430      8426      8425      8428      8431
      8427      8425      8428      8429      8427      8425      8428      8430
      8427      8425      8428      8431      8428      8431      8434      8435
      8428      8431      8434      8436      8428      8431      8434      8437
      8429      8428      8431      8432      8429      8428      8431      8433
      8429      8428      8431      8434      8430      8428      8431      8432
      8430      8428      8431      8433      8430      8428      8431      8434
      8431      8434      8437      8438      8431      8434      8437      8439
      8431      8434      8437      8440      8432      8431      8434      8435
      8432      8431      8434      8436      8432      8431      8434      8437
      8433      8431      8434      8435      8433      8431      8434      8436
      8433      8431      8434      8437      8435      8434      8437      8438
      8435      8434      8437      8439      8435      8434      8437      8440
      8436      8434      8437      8438      8436      8434      8437      8439
      8436      8434      8437      8440      8441      8442      8457      8458
      8441      8442      8457      8459      8441      8442      8457      8463
      8442      8441      8445      8446      8442      8441      8445      8447
      8442      8441      8445      8448      8442      8441      8449      8450
      8442      8441      8449      8451      8442      8441      8449      8452
      8442      8441      8453      8454      8442      8441      8453      8455
      8442      8441      8453      8456      8442      8457      8463      8460
      8443      8442      8441      8445      8443      8442      8441      8449
      8443      8442      8441      8453      8443      8442      8457      8458
      8443      8442      8457      8459      8443      8442      8457      8463
      8444      8442      8441      8445      8444      8442      8441      8449
      8444      8442      8441      8453      8444      8442      8457      8458
      8444      8442      8457      8459      8444      8442      8457      8463
      8445      8441      8442      8457      8445      8441      8449      8450
      8445      8441      8449      8451      8445      8441      8449      8452
      8445      8441      8453      8454      8445      8441      8453      8455
      8445      8441      8453      8456      8446      8445      8441      8449
      8446      8445      8441      8453      8447      8445      8441      8449
      8447      8445      8441      8453      8448      8445      8441      8449
      8448      8445      8441      8453      8449      8441      8442      8457
      8449      8441      8453      8454      8449      8441      8453      8455
      8449      8441      8453      8456      8450      8449      8441      8453
      8451      8449      8441      8453      8452      8449      8441      8453
      8453      8441      8442      8457      8457      8463      8460      8461
      8457      8463      8460      8462      8457      8463      8460      8464
      8458      8457      8463      8460      8459      8457      8463      8460
      8460      8464      8465      8466      8460      8464      8465      8467
      8460      8464      8465      8468      8461      8460      8464      8465
      8462      8460      8464      8465      8463      8460      8464      8465
      8464      8465      8468      8469      8464      8465      8468      8470
      8464      8465      8468      8476      8465      8468      8470      8471
      8465      8468      8476      8477      8465      8468      8476      8478
      8465      8468      8476      8479      8466      8465      8468      8469
      8466      8465      8468      8470      8466      8465      8468      8476
      8467      8465      8468      8469      8467      8465      8468      8470
      8467      8465      8468      8476      8468      8470      8471      8472
      8468      8470      8471      8473      8468      8476      8479      8480
      8469      8468      8470      8471      8469      8468      8476      8477
      8469      8468      8476      8478      8469      8468      8476      8479
      8470      8468      8476      8477      8470      8468      8476      8478
      8470      8468      8476      8479      8470      8471      8473      8474
      8470      8471      8473      8475      8470      8471      8473      8485
      8471      8470      8468      8476      8471      8473      8485      8486
      8471      8473      8485      8487      8471      8473      8485      8488
      8472      8471      8473      8474      8472      8471      8473      8475
      8472      8471      8473      8485      8473      8485      8488      8489
      8473      8485      8488      8490      8473      8485      8488      8491
      8474      8473      8485      8486      8474      8473      8485      8487
      8474      8473      8485      8488      8475      8473      8485      8486
      8475      8473      8485      8487      8475      8473      8485      8488
      8476      8479      8480      8481      8476      8479      8480      8482
      8477      8476      8479      8480      8478      8476      8479      8480
      8479      8480      8482      8483      8479      8480      8482      8484
      8479      8480      8482      8532      8480      8482      8532      8533
      8480      8482      8532      8534      8480      8482      8532      8535
      8481      8480      8482      8483      8481      8480      8482      8484
      8481      8480      8482      8532      8482      8532      8535      8536
      8482      8532      8535      8537      8482      8532      8535      8538
      8483      8482      8532      8533      8483      8482      8532      8534
      8483      8482      8532      8535      8484      8482      8532      8533
      8484      8482      8532      8534      8484      8482      8532      8535
      8485      8488      8491      8492      8485      8488      8491      8493
      8486      8485      8488      8489      8486      8485      8488      8490
      8486      8485      8488      8491      8487      8485      8488      8489
      8487      8485      8488      8490      8487      8485      8488      8491
      8488      8491      8493      8494      8488      8491      8493      8495
      8489      8488      8491      8492      8489      8488      8491      8493
      8490      8488      8491      8492      8490      8488      8491      8493
      8491      8493      8495      8496      8491      8493      8495      8497
      8491      8493      8495      8498      8492      8491      8493      8494
      8492      8491      8493      8495      8493      8495      8498      8499
      8493      8495      8498      8500      8494      8493      8495      8496
      8494      8493      8495      8497      8494      8493      8495      8498
      8495      8498      8500      8501      8495      8498      8500      8502
      8496      8495      8498      8499      8496      8495      8498      8500
      8497      8495      8498      8499      8497      8495      8498      8500
      8498      8500      8502      8503      8498      8500      8502      8504
      8498      8500      8502      8505      8499      8498      8500      8501
      8499      8498      8500      8502      8500      8502      8505      8506
      8500      8502      8505      8507      8501      8500      8502      8503
      8501      8500      8502      8504      8501      8500      8502      8505
      8502      8505      8507      8508      8502      8505      8507      8509
      8503      8502      8505      8506      8503      8502      8505      8507
      8504      8502      8505      8506      8504      8502      8505      8507
      8505      8507      8509      8510      8505      8507      8509      8511
      8505      8507      8509      8512      8506      8505      8507      8508
      8506      8505      8507      8509      8507      8509      8512      8513
      8507      8509      8512      8514      8508      8507      8509      8510
      8508      8507      8509      8511      8508      8507      8509      8512
      8509      8512      8514      8515      8509      8512      8514      8516
      8510      8509      8512      8513      8510      8509      8512      8514
      8511      8509      8512      8513      8511      8509      8512      8514
      8512      8514      8516      8517      8512      8514      8516      8518
      8512      8514      8516      8519      8513      8512      8514      8515
      8513      8512      8514      8516      8514      8516      8519      8520
      8514      8516      8519      8521      8514      8516      8519      8522
      8515      8514      8516      8517      8515      8514      8516      8518
      8515      8514      8516      8519      8516      8519      8522      8523
      8516      8519      8522      8524      8516      8519      8522      8525
      8517      8516      8519      8520      8517      8516      8519      8521
      8517      8516      8519      8522      8518      8516      8519      8520
      8518      8516      8519      8521      8518      8516      8519      8522
      8519      8522      8525      8526      8519      8522      8525      8527
      8519      8522      8525      8528      8520      8519      8522      8523
      8520      8519      8522      8524      8520      8519      8522      8525
      8521      8519      8522      8523      8521      8519      8522      8524
      8521      8519      8522      8525      8522      8525      8528      8529
      8522      8525      8528      8530      8522      8525      8528      8531
      8523      8522      8525      8526      8523      8522      8525      8527
      8523      8522      8525      8528      8524      8522      8525      8526
      8524      8522      8525      8527      8524      8522      8525      8528
      8526      8525      8528      8529      8526      8525      8528      8530
      8526      8525      8528      8531      8527      8525      8528      8529
      8527      8525      8528      8530      8527      8525      8528      8531
      8532      8535      8538      8539      8532      8535      8538      8540
      8532      8535      8538      8541      8533      8532      8535      8536
      8533      8532      8535      8537      8533      8532      8535      8538
      8534      8532      8535      8536      8534      8532      8535      8537
      8534      8532      8535      8538      8535      8538      8541      8542
      8535      8538      8541      8543      8535      8538      8541      8544
      8536      8535      8538      8539      8536      8535      8538      8540
      8536      8535      8538      8541      8537      8535      8538      8539
      8537      8535      8538      8540      8537      8535      8538      8541
      8538      8541      8544      8545      8538      8541      8544      8546
      8538      8541      8544      8547      8539      8538      8541      8542
      8539      8538      8541      8543      8539      8538      8541      8544
      8540      8538      8541      8542      8540      8538      8541      8543
      8540      8538      8541      8544      8541      8544      8547      8548
      8541      8544      8547      8549      8541      8544      8547      8550
      8542      8541      8544      8545      8542      8541      8544      8546
      8542      8541      8544      8547      8543      8541      8544      8545
      8543      8541      8544      8546      8543      8541      8544      8547
      8544      8547      8550      8551      8544      8547      8550      8552
      8544      8547      8550      8553      8545      8544      8547      8548
      8545      8544      8547      8549      8545      8544      8547      8550
      8546      8544      8547      8548      8546      8544      8547      8549
      8546      8544      8547      8550      8547      8550      8553      8554
      8547      8550      8553      8555      8547      8550      8553      8556
      8548      8547      8550      8551      8548      8547      8550      8552
      8548      8547      8550      8553      8549      8547      8550      8551
      8549      8547      8550      8552      8549      8547      8550      8553
      8550      8553      8556      8557      8550      8553      8556      8558
      8550      8553      8556      8559      8551      8550      8553      8554
      8551      8550      8553      8555      8551      8550      8553      8556
      8552      8550      8553      8554      8552      8550      8553      8555
      8552      8550      8553      8556      8553      8556      8559      8560
      8553      8556      8559      8561      8553      8556      8559      8562
      8554      8553      8556      8557      8554      8553      8556      8558
      8554      8553      8556      8559      8555      8553      8556      8557
      8555      8553      8556      8558      8555      8553      8556      8559
      8556      8559      8562      8563      8556      8559      8562      8564
      8556      8559      8562      8565      8557      8556      8559      8560
      8557      8556      8559      8561      8557      8556      8559      8562
      8558      8556      8559      8560      8558      8556      8559      8561
      8558      8556      8559      8562      8559      8562      8565      8566
      8559      8562      8565      8567      8559      8562      8565      8568
      8560      8559      8562      8563      8560      8559      8562      8564
      8560      8559      8562      8565      8561      8559      8562      8563
      8561      8559      8562      8564      8561      8559      8562      8565
      8562      8565      8568      8569      8562      8565      8568      8570
      8562      8565      8568      8571      8563      8562      8565      8566
      8563      8562      8565      8567      8563      8562      8565      8568
      8564      8562      8565      8566      8564      8562      8565      8567
      8564      8562      8565      8568      8565      8568      8571      8572
      8565      8568      8571      8573      8565      8568      8571      8574
      8566      8565      8568      8569      8566      8565      8568      8570
      8566      8565      8568      8571      8567      8565      8568      8569
      8567      8565      8568      8570      8567      8565      8568      8571
      8568      8571      8574      8575      8568      8571      8574      8576
      8568      8571      8574      8577      8569      8568      8571      8572
      8569      8568      8571      8573      8569      8568      8571      8574
      8570      8568      8571      8572      8570      8568      8571      8573
      8570      8568      8571      8574      8571      8574      8577      8578
      8571      8574      8577      8579      8571      8574      8577      8580
      8572      8571      8574      8575      8572      8571      8574      8576
      8572      8571      8574      8577      8573      8571      8574      8575
      8573      8571      8574      8576      8573      8571      8574      8577
      8575      8574      8577      8578      8575      8574      8577      8579
      8575      8574      8577      8580      8576      8574      8577      8578
      8576      8574      8577      8579      8576      8574      8577      8580
      8581      8585      8587      8588      8581      8585      8587      8589
      8581      8585      8590      8591      8581      8585      8590      8592
      8581      8585      8590      8596      8582      8581      8585      8586
      8582      8581      8585      8587      8582      8581      8585      8590
      8583      8581      8585      8586      8583      8581      8585      8587
      8583      8581      8585      8590      8584      8581      8585      8586
      8584      8581      8585      8587      8584      8581      8585      8590
      8585      8590      8596      8593      8586      8585      8587      8588
      8586      8585      8587      8589      8586      8585      8590      8591
      8586      8585      8590      8592      8586      8585      8590      8596
      8587      8585      8590      8591      8587      8585      8590      8592
      8587      8585      8590      8596      8588      8587      8585      8590
      8589      8587      8585      8590      8590      8596      8593      8594
      8590      8596      8593      8595      8590      8596      8593      8597
      8591      8590      8596      8593      8592      8590      8596      8593
      8593      8597      8598      8599      8593      8597      8598      8600
      8593      8597      8598      8601      8594      8593      8597      8598
      8595      8593      8597      8598      8596      8593      8597      8598
      8597      8598      8601      8602      8597      8598      8601      8603
      8597      8598      8601      8609      8598      8601      8603      8604
      8598      8601      8609      8610      8598      8601      8609      8611
      8598      8601      8609      8612      8599      8598      8601      8602
      8599      8598      8601      8603      8599      8598      8601      8609
      8600      8598      8601      8602      8600      8598      8601      8603
      8600      8598      8601      8609      8601      8603      8604      8605
      8601      8603      8604      8606      8601      8609      8612      8613
      8602      8601      8603      8604      8602      8601      8609      8610
      8602      8601      8609      8611      8602      8601      8609      8612
      8603      8601      8609      8610      8603      8601      8609      8611
      8603      8601      8609      8612      8603      8604      8606      8607
      8603      8604      8606      8608      8603      8604      8606      8618
      8604      8603      8601      8609      8604      8606      8618      8619
      8604      8606      8618      8620      8604      8606      8618      8621
      8605      8604      8606      8607      8605      8604      8606      8608
      8605      8604      8606      8618      8606      8618      8621      8622
      8606      8618      8621      8623      8606      8618      8621      8624
      8607      8606      8618      8619      8607      8606      8618      8620
      8607      8606      8618      8621      8608      8606      8618      8619
      8608      8606      8618      8620      8608      8606      8618      8621
      8609      8612      8613      8614      8609      8612      8613      8615
      8610      8609      8612      8613      8611      8609      8612      8613
      8612      8613      8615      8616      8612      8613      8615      8617
      8612      8613      8615      8665      8613      8615      8665      8666
      8613      8615      8665      8667      8613      8615      8665      8668
      8614      8613      8615      8616      8614      8613      8615      8617
      8614      8613      8615      8665      8615      8665      8668      8669
      8615      8665      8668      8670      8615      8665      8668      8671
      8616      8615      8665      8666      8616      8615      8665      8667
      8616      8615      8665      8668      8617      8615      8665      8666
      8617      8615      8665      8667      8617      8615      8665      8668
      8618      8621      8624      8625      8618      8621      8624      8626
      8619      8618      8621      8622      8619      8618      8621      8623
      8619      8618      8621      8624      8620      8618      8621      8622
      8620      8618      8621      8623      8620      8618      8621      8624
      8621      8624      8626      8627      8621      8624      8626      8628
      8622      8621      8624      8625      8622      8621      8624      8626
      8623      8621      8624      8625      8623      8621      8624      8626
      8624      8626      8628      8629      8624      8626      8628      8630
      8624      8626      8628      8631      8625      8624      8626      8627
      8625      8624      8626      8628      8626      8628      8631      8632
      8626      8628      8631      8633      8627      8626      8628      8629
      8627      8626      8628      8630      8627      8626      8628      8631
      8628      8631      8633      8634      8628      8631      8633      8635
      8629      8628      8631      8632      8629      8628      8631      8633
      8630      8628      8631      8632      8630      8628      8631      8633
      8631      8633      8635      8636      8631      8633      8635      8637
      8631      8633      8635      8638      8632      8631      8633      8634
      8632      8631      8633      8635      8633      8635      8638      8639
      8633      8635      8638      8640      8634      8633      8635      8636
      8634      8633      8635      8637      8634      8633      8635      8638
      8635      8638      8640      8641      8635      8638      8640      8642
      8636      8635      8638      8639      8636      8635      8638      8640
      8637      8635      8638      8639      8637      8635      8638      8640
      8638      8640      8642      8643      8638      8640      8642      8644
      8638      8640      8642      8645      8639      8638      8640      8641
      8639      8638      8640      8642      8640      8642      8645      8646
      8640      8642      8645      8647      8641      8640      8642      8643
      8641      8640      8642      8644      8641      8640      8642      8645
      8642      8645      8647      8648      8642      8645      8647      8649
      8643      8642      8645      8646      8643      8642      8645      8647
      8644      8642      8645      8646      8644      8642      8645      8647
      8645      8647      8649      8650      8645      8647      8649      8651
      8645      8647      8649      8652      8646      8645      8647      8648
      8646      8645      8647      8649      8647      8649      8652      8653
      8647      8649      8652      8654      8647      8649      8652      8655
      8648      8647      8649      8650      8648      8647      8649      8651
      8648      8647      8649      8652      8649      8652      8655      8656
      8649      8652      8655      8657      8649      8652      8655      8658
      8650      8649      8652      8653      8650      8649      8652      8654
      8650      8649      8652      8655      8651      8649      8652      8653
      8651      8649      8652      8654      8651      8649      8652      8655
      8652      8655      8658      8659      8652      8655      8658      8660
      8652      8655      8658      8661      8653      8652      8655      8656
      8653      8652      8655      8657      8653      8652      8655      8658
      8654      8652      8655      8656      8654      8652      8655      8657
      8654      8652      8655      8658      8655      8658      8661      8662
      8655      8658      8661      8663      8655      8658      8661      8664
      8656      8655      8658      8659      8656      8655      8658      8660
      8656      8655      8658      8661      8657      8655      8658      8659
      8657      8655      8658      8660      8657      8655      8658      8661
      8659      8658      8661      8662      8659      8658      8661      8663
      8659      8658      8661      8664      8660      8658      8661      8662
      8660      8658      8661      8663      8660      8658      8661      8664
      8665      8668      8671      8672      8665      8668      8671      8673
      8665      8668      8671      8674      8666      8665      8668      8669
      8666      8665      8668      8670      8666      8665      8668      8671
      8667      8665      8668      8669      8667      8665      8668      8670
      8667      8665      8668      8671      8668      8671      8674      8675
      8668      8671      8674      8676      8668      8671      8674      8677
      8669      8668      8671      8672      8669      8668      8671      8673
      8669      8668      8671      8674      8670      8668      8671      8672
      8670      8668      8671      8673      8670      8668      8671      8674
      8671      8674      8677      8678      8671      8674      8677      8679
      8671      8674      8677      8680      8672      8671      8674      8675
      8672      8671      8674      8676      8672      8671      8674      8677
      8673      8671      8674      8675      8673      8671      8674      8676
      8673      8671      8674      8677      8674      8677      8680      8681
      8674      8677      8680      8682      8674      8677      8680      8683
      8675      8674      8677      8678      8675      8674      8677      8679
      8675      8674      8677      8680      8676      8674      8677      8678
      8676      8674      8677      8679      8676      8674      8677      8680
      8677      8680      8683      8684      8677      8680      8683      8685
      8677      8680      8683      8686      8678      8677      8680      8681
      8678      8677      8680      8682      8678      8677      8680      8683
      8679      8677      8680      8681      8679      8677      8680      8682
      8679      8677      8680      8683      8680      8683      8686      8687
      8680      8683      8686      8688      8680      8683      8686      8689
      8681      8680      8683      8684      8681      8680      8683      8685
      8681      8680      8683      8686      8682      8680      8683      8684
      8682      8680      8683      8685      8682      8680      8683      8686
      8683      8686      8689      8690      8683      8686      8689      8691
      8683      8686      8689      8692      8684      8683      8686      8687
      8684      8683      8686      8688      8684      8683      8686      8689
      8685      8683      8686      8687      8685      8683      8686      8688
      8685      8683      8686      8689      8686      8689      8692      8693
      8686      8689      8692      8694      8686      8689      8692      8695
      8687      8686      8689      8690      8687      8686      8689      8691
      8687      8686      8689      8692      8688      8686      8689      8690
      8688      8686      8689      8691      8688      8686      8689      8692
      8689      8692      8695      8696      8689      8692      8695      8697
      8689      8692      8695      8698      8690      8689      8692      8693
      8690      8689      8692      8694      8690      8689      8692      8695
      8691      8689      8692      8693      8691      8689      8692      8694
      8691      8689      8692      8695      8692      8695      8698      8699
      8692      8695      8698      8700      8692      8695      8698      8701
      8693      8692      8695      8696      8693      8692      8695      8697
      8693      8692      8695      8698      8694      8692      8695      8696
      8694      8692      8695      8697      8694      8692      8695      8698
      8695      8698      8701      8702      8695      8698      8701      8703
      8695      8698      8701      8704      8696      8695      8698      8699
      8696      8695      8698      8700      8696      8695      8698      8701
      8697      8695      8698      8699      8697      8695      8698      8700
      8697      8695      8698      8701      8698      8701      8704      8705
      8698      8701      8704      8706      8698      8701      8704      8707
      8699      8698      8701      8702      8699      8698      8701      8703
      8699      8698      8701      8704      8700      8698      8701      8702
      8700      8698      8701      8703      8700      8698      8701      8704
      8701      8704      8707      8708      8701      8704      8707      8709
      8701      8704      8707      8710      8702      8701      8704      8705
      8702      8701      8704      8706      8702      8701      8704      8707
      8703      8701      8704      8705      8703      8701      8704      8706
      8703      8701      8704      8707      8704      8707      8710      8711
      8704      8707      8710      8712      8704      8707      8710      8713
      8705      8704      8707      8708      8705      8704      8707      8709
      8705      8704      8707      8710      8706      8704      8707      8708
      8706      8704      8707      8709      8706      8704      8707      8710
      8708      8707      8710      8711      8708      8707      8710      8712
      8708      8707      8710      8713      8709      8707      8710      8711
      8709      8707      8710      8712      8709      8707      8710      8713
      8714      8727      8730      8731      8714      8727      8730      8732
      8714      8727      8730      8737      8715      8714      8719      8720
      8715      8714      8719      8721      8715      8714      8719      8722
      8715      8714      8723      8724      8715      8714      8723      8725
      8715      8714      8723      8726      8715      8714      8727      8728
      8715      8714      8727      8729      8715      8714      8727      8730
      8716      8715      8714      8719      8716      8715      8714      8723
      8716      8715      8714      8727      8717      8715      8714      8719
      8717      8715      8714      8723      8717      8715      8714      8727
      8718      8715      8714      8719      8718      8715      8714      8723
      8718      8715      8714      8727      8719      8714      8723      8724
      8719      8714      8723      8725      8719      8714      8723      8726
      8719      8714      8727      8728      8719      8714      8727      8729
      8719      8714      8727      8730      8720      8719      8714      8723
      8720      8719      8714      8727      8721      8719      8714      8723
      8721      8719      8714      8727      8722      8719      8714      8723
      8722      8719      8714      8727      8723      8714      8727      8728
      8723      8714      8727      8729      8723      8714      8727      8730
      8724      8723      8714      8727      8725      8723      8714      8727
      8726      8723      8714      8727      8727      8730      8737      8733
      8728      8727      8730      8731      8728      8727      8730      8732
      8728      8727      8730      8737      8729      8727      8730      8731
      8729      8727      8730      8732      8729      8727      8730      8737
      8730      8737      8733      8734      8730      8737      8733      8735
      8730      8737      8733      8736      8731      8730      8737      8733
      8732      8730      8737      8733      8733      8736      8738      8739
      8733      8736      8738      8740      8733      8736      8738      8743
      8734      8733      8736      8738      8735      8733      8736      8738
      8736      8738      8743      8741      8736      8738      8743      8744
      8736      8738      8743      8745      8737      8733      8736      8738
      8738      8743      8741      8742      8738      8743      8741      8793
      8738      8743      8745      8746      8738      8743      8745      8747
      8738      8743      8745      8749      8739      8738      8743      8741
      8739      8738      8743      8744      8739      8738      8743      8745
      8740      8738      8743      8741      8740      8738      8743      8744
      8740      8738      8743      8745      8741      8743      8745      8746
      8741      8743      8745      8747      8741      8743      8745      8749
      8741      8793      8795      8796      8741      8793      8795      8797
      8741      8793      8795      8798      8742      8741      8743      8744
      8742      8741      8743      8745      8742      8741      8793      8794
      8742      8741      8793      8795      8743      8741      8793      8794
      8743      8741      8793      8795      8743      8745      8747      8748
      8743      8745      8749      8750      8743      8745      8749      8751
      8744      8743      8741      8793      8744      8743      8745      8746
      8744      8743      8745      8747      8744      8743      8745      8749
      8745      8743      8741      8793      8745      8749      8751      8752
      8745      8749      8751      8753      8746      8745      8747      8748
      8746      8745      8749      8750      8746      8745      8749      8751
      8747      8745      8749      8750      8747      8745      8749      8751
      8748      8747      8745      8749      8749      8751      8753      8754
      8749      8751      8753      8755      8749      8751      8753      8756
      8750      8749      8751      8752      8750      8749      8751      8753
      8751      8753      8756      8757      8751      8753      8756      8758
      8751      8753      8756      8759      8752      8751      8753      8754
      8752      8751      8753      8755      8752      8751      8753      8756
      8753      8756      8759      8760      8753      8756      8759      8761
      8753      8756      8759      8762      8754      8753      8756      8757
      8754      8753      8756      8758      8754      8753      8756      8759
      8755      8753      8756      8757      8755      8753      8756      8758
      8755      8753      8756      8759      8756      8759      8762      8763
      8756      8759      8762      8764      8756      8759      8762      8765
      8757      8756      8759      8760      8757      8756      8759      8761
      8757      8756      8759      8762      8758      8756      8759      8760
      8758      8756      8759      8761      8758      8756      8759      8762
      8759      8762      8765      8766      8759      8762      8765      8767
      8759      8762      8765      8768      8760      8759      8762      8763
      8760      8759      8762      8764      8760      8759      8762      8765
      8761      8759      8762      8763      8761      8759      8762      8764
      8761      8759      8762      8765      8762      8765      8768      8769
      8762      8765      8768      8770      8762      8765      8768      8771
      8763      8762      8765      8766      8763      8762      8765      8767
      8763      8762      8765      8768      8764      8762      8765      8766
      8764      8762      8765      8767      8764      8762      8765      8768
      8765      8768      8771      8772      8765      8768      8771      8773
      8765      8768      8771      8774      8766      8765      8768      8769
      8766      8765      8768      8770      8766      8765      8768      8771
      8767      8765      8768      8769      8767      8765      8768      8770
      8767      8765      8768      8771      8768      8771      8774      8775
      8768      8771      8774      8776      8768      8771      8774      8777
      8769      8768      8771      8772      8769      8768      8771      8773
      8769      8768      8771      8774      8770      8768      8771      8772
      8770      8768      8771      8773      8770      8768      8771      8774
      8771      8774      8777      8778      8771      8774      8777      8779
      8771      8774      8777      8780      8772      8771      8774      8775
      8772      8771      8774      8776      8772      8771      8774      8777
      8773      8771      8774      8775      8773      8771      8774      8776
      8773      8771      8774      8777      8774      8777      8780      8781
      8774      8777      8780      8782      8774      8777      8780      8783
      8775      8774      8777      8778      8775      8774      8777      8779
      8775      8774      8777      8780      8776      8774      8777      8778
      8776      8774      8777      8779      8776      8774      8777      8780
      8777      8780      8783      8784      8777      8780      8783      8785
      8777      8780      8783      8786      8778      8777      8780      8781
      8778      8777      8780      8782      8778      8777      8780      8783
      8779      8777      8780      8781      8779      8777      8780      8782
      8779      8777      8780      8783      8780      8783      8786      8787
      8780      8783      8786      8788      8780      8783      8786      8789
      8781      8780      8783      8784      8781      8780      8783      8785
      8781      8780      8783      8786      8782      8780      8783      8784
      8782      8780      8783      8785      8782      8780      8783      8786
      8783      8786      8789      8790      8783      8786      8789      8791
      8783      8786      8789      8792      8784      8783      8786      8787
      8784      8783      8786      8788      8784      8783      8786      8789
      8785      8783      8786      8787      8785      8783      8786      8788
      8785      8783      8786      8789      8787      8786      8789      8790
      8787      8786      8789      8791      8787      8786      8789      8792
      8788      8786      8789      8790      8788      8786      8789      8791
      8788      8786      8789      8792      8793      8795      8798      8799
      8793      8795      8798      8800      8793      8795      8798      8801
      8794      8793      8795      8796      8794      8793      8795      8797
      8794      8793      8795      8798      8795      8798      8801      8802
      8795      8798      8801      8803      8795      8798      8801      8804
      8796      8795      8798      8799      8796      8795      8798      8800
      8796      8795      8798      8801      8797      8795      8798      8799
      8797      8795      8798      8800      8797      8795      8798      8801
      8798      8801      8804      8805      8798      8801      8804      8806
      8798      8801      8804      8807      8799      8798      8801      8802
      8799      8798      8801      8803      8799      8798      8801      8804
      8800      8798      8801      8802      8800      8798      8801      8803
      8800      8798      8801      8804      8801      8804      8807      8808
      8801      8804      8807      8809      8801      8804      8807      8810
      8802      8801      8804      8805      8802      8801      8804      8806
      8802      8801      8804      8807      8803      8801      8804      8805
      8803      8801      8804      8806      8803      8801      8804      8807
      8804      8807      8810      8811      8804      8807      8810      8812
      8804      8807      8810      8813      8805      8804      8807      8808
      8805      8804      8807      8809      8805      8804      8807      8810
      8806      8804      8807      8808      8806      8804      8807      8809
      8806      8804      8807      8810      8807      8810      8813      8814
      8807      8810      8813      8815      8807      8810      8813      8816
      8808      8807      8810      8811      8808      8807      8810      8812
      8808      8807      8810      8813      8809      8807      8810      8811
      8809      8807      8810      8812      8809      8807      8810      8813
      8810      8813      8816      8817      8810      8813      8816      8818
      8811      8810      8813      8814      8811      8810      8813      8815
      8811      8810      8813      8816      8812      8810      8813      8814
      8812      8810      8813      8815      8812      8810      8813      8816
      8813      8816      8818      8819      8813      8816      8818      8820
      8814      8813      8816      8817      8814      8813      8816      8818
      8815      8813      8816      8817      8815      8813      8816      8818
      8816      8818      8820      8821      8816      8818      8820      8822
      8816      8818      8820      8823      8817      8816      8818      8819
      8817      8816      8818      8820      8818      8820      8823      8824
      8818      8820      8823      8825      8818      8820      8823      8826
      8819      8818      8820      8821      8819      8818      8820      8822
      8819      8818      8820      8823      8820      8823      8826      8827
      8820      8823      8826      8828      8820      8823      8826      8829
      8821      8820      8823      8824      8821      8820      8823      8825
      8821      8820      8823      8826      8822      8820      8823      8824
      8822      8820      8823      8825      8822      8820      8823      8826
      8823      8826      8829      8830      8823      8826      8829      8831
      8823      8826      8829      8832      8824      8823      8826      8827
      8824      8823      8826      8828      8824      8823      8826      8829
      8825      8823      8826      8827      8825      8823      8826      8828
      8825      8823      8826      8829      8826      8829      8832      8833
      8826      8829      8832      8834      8826      8829      8832      8835
      8827      8826      8829      8830      8827      8826      8829      8831
      8827      8826      8829      8832      8828      8826      8829      8830
      8828      8826      8829      8831      8828      8826      8829      8832
      8829      8832      8835      8836      8829      8832      8835      8837
      8829      8832      8835      8838      8830      8829      8832      8833
      8830      8829      8832      8834      8830      8829      8832      8835
      8831      8829      8832      8833      8831      8829      8832      8834
      8831      8829      8832      8835      8832      8835      8838      8839
      8832      8835      8838      8840      8832      8835      8838      8841
      8833      8832      8835      8836      8833      8832      8835      8837
      8833      8832      8835      8838      8834      8832      8835      8836
      8834      8832      8835      8837      8834      8832      8835      8838
      8835      8838      8841      8842      8835      8838      8841      8843
      8835      8838      8841      8844      8836      8835      8838      8839
      8836      8835      8838      8840      8836      8835      8838      8841
      8837      8835      8838      8839      8837      8835      8838      8840
      8837      8835      8838      8841      8839      8838      8841      8842
      8839      8838      8841      8843      8839      8838      8841      8844
      8840      8838      8841      8842      8840      8838      8841      8843
      8840      8838      8841      8844      8845      8849      8852      8853
      8845      8849      8852      8854      8845      8849      8852      8858
      8846      8845      8849      8850      8846      8845      8849      8851
      8846      8845      8849      8852      8847      8845      8849      8850
      8847      8845      8849      8851      8847      8845      8849      8852
      8848      8845      8849      8850      8848      8845      8849      8851
      8848      8845      8849      8852      8849      8852      8858      8855
      8850      8849      8852      8853      8850      8849      8852      8854
      8850      8849      8852      8858      8851      8849      8852      8853
      8851      8849      8852      8854      8851      8849      8852      8858
      8852      8858      8855      8856      8852      8858      8855      8857
      8852      8858      8855      8859      8853      8852      8858      8855
      8854      8852      8858      8855      8855      8859      8860      8861
      8855      8859      8860      8862      8855      8859      8860      8863
      8856      8855      8859      8860      8857      8855      8859      8860
      8858      8855      8859      8860      8859      8860      8863      8864
      8859      8860      8863      8865      8859      8860      8863      8871
      8860      8863      8865      8866      8860      8863      8871      8872
      8860      8863      8871      8873      8860      8863      8871      8874
      8861      8860      8863      8864      8861      8860      8863      8865
      8861      8860      8863      8871      8862      8860      8863      8864
      8862      8860      8863      8865      8862      8860      8863      8871
      8863      8865      8866      8867      8863      8865      8866      8868
      8863      8871      8874      8875      8864      8863      8865      8866
      8864      8863      8871      8872      8864      8863      8871      8873
      8864      8863      8871      8874      8865      8863      8871      8872
      8865      8863      8871      8873      8865      8863      8871      8874
      8865      8866      8868      8869      8865      8866      8868      8870
      8865      8866      8868      8880      8866      8865      8863      8871
      8866      8868      8880      8881      8866      8868      8880      8882
      8866      8868      8880      8883      8867      8866      8868      8869
      8867      8866      8868      8870      8867      8866      8868      8880
      8868      8880      8883      8884      8868      8880      8883      8885
      8868      8880      8883      8886      8869      8868      8880      8881
      8869      8868      8880      8882      8869      8868      8880      8883
      8870      8868      8880      8881      8870      8868      8880      8882
      8870      8868      8880      8883      8871      8874      8875      8876
      8871      8874      8875      8877      8872      8871      8874      8875
      8873      8871      8874      8875      8874      8875      8877      8878
      8874      8875      8877      8879      8874      8875      8877      8927
      8875      8877      8927      8928      8875      8877      8927      8929
      8875      8877      8927      8930      8876      8875      8877      8878
      8876      8875      8877      8879      8876      8875      8877      8927
      8877      8927      8930      8931      8877      8927      8930      8932
      8877      8927      8930      8933      8878      8877      8927      8928
      8878      8877      8927      8929      8878      8877      8927      8930
      8879      8877      8927      8928      8879      8877      8927      8929
      8879      8877      8927      8930      8880      8883      8886      8887
      8880      8883      8886      8888      8881      8880      8883      8884
      8881      8880      8883      8885      8881      8880      8883      8886
      8882      8880      8883      8884      8882      8880      8883      8885
      8882      8880      8883      8886      8883      8886      8888      8889
      8883      8886      8888      8890      8884      8883      8886      8887
      8884      8883      8886      8888      8885      8883      8886      8887
      8885      8883      8886      8888      8886      8888      8890      8891
      8886      8888      8890      8892      8886      8888      8890      8893
      8887      8886      8888      8889      8887      8886      8888      8890
      8888      8890      8893      8894      8888      8890      8893      8895
      8889      8888      8890      8891      8889      8888      8890      8892
      8889      8888      8890      8893      8890      8893      8895      8896
      8890      8893      8895      8897      8891      8890      8893      8894
      8891      8890      8893      8895      8892      8890      8893      8894
      8892      8890      8893      8895      8893      8895      8897      8898
      8893      8895      8897      8899      8893      8895      8897      8900
      8894      8893      8895      8896      8894      8893      8895      8897
      8895      8897      8900      8901      8895      8897      8900      8902
      8896      8895      8897      8898      8896      8895      8897      8899
      8896      8895      8897      8900      8897      8900      8902      8903
      8897      8900      8902      8904      8898      8897      8900      8901
      8898      8897      8900      8902      8899      8897      8900      8901
      8899      8897      8900      8902      8900      8902      8904      8905
      8900      8902      8904      8906      8900      8902      8904      8907
      8901      8900      8902      8903      8901      8900      8902      8904
      8902      8904      8907      8908      8902      8904      8907      8909
      8903      8902      8904      8905      8903      8902      8904      8906
      8903      8902      8904      8907      8904      8907      8909      8910
      8904      8907      8909      8911      8905      8904      8907      8908
      8905      8904      8907      8909      8906      8904      8907      8908
      8906      8904      8907      8909      8907      8909      8911      8912
      8907      8909      8911      8913      8907      8909      8911      8914
      8908      8907      8909      8910      8908      8907      8909      8911
      8909      8911      8914      8915      8909      8911      8914      8916
      8909      8911      8914      8917      8910      8909      8911      8912
      8910      8909      8911      8913      8910      8909      8911      8914
      8911      8914      8917      8918      8911      8914      8917      8919
      8911      8914      8917      8920      8912      8911      8914      8915
      8912      8911      8914      8916      8912      8911      8914      8917
      8913      8911      8914      8915      8913      8911      8914      8916
      8913      8911      8914      8917      8914      8917      8920      8921
      8914      8917      8920      8922      8914      8917      8920      8923
      8915      8914      8917      8918      8915      8914      8917      8919
      8915      8914      8917      8920      8916      8914      8917      8918
      8916      8914      8917      8919      8916      8914      8917      8920
      8917      8920      8923      8924      8917      8920      8923      8925
      8917      8920      8923      8926      8918      8917      8920      8921
      8918      8917      8920      8922      8918      8917      8920      8923
      8919      8917      8920      8921      8919      8917      8920      8922
      8919      8917      8920      8923      8921      8920      8923      8924
      8921      8920      8923      8925      8921      8920      8923      8926
      8922      8920      8923      8924      8922      8920      8923      8925
      8922      8920      8923      8926      8927      8930      8933      8934
      8927      8930      8933      8935      8927      8930      8933      8936
      8928      8927      8930      8931      8928      8927      8930      8932
      8928      8927      8930      8933      8929      8927      8930      8931
      8929      8927      8930      8932      8929      8927      8930      8933
      8930      8933      8936      8937      8930      8933      8936      8938
      8930      8933      8936      8939      8931      8930      8933      8934
      8931      8930      8933      8935      8931      8930      8933      8936
      8932      8930      8933      8934      8932      8930      8933      8935
      8932      8930      8933      8936      8933      8936      8939      8940
      8933      8936      8939      8941      8933      8936      8939      8942
      8934      8933      8936      8937      8934      8933      8936      8938
      8934      8933      8936      8939      8935      8933      8936      8937
      8935      8933      8936      8938      8935      8933      8936      8939
      8936      8939      8942      8943      8936      8939      8942      8944
      8936      8939      8942      8945      8937      8936      8939      8940
      8937      8936      8939      8941      8937      8936      8939      8942
      8938      8936      8939      8940      8938      8936      8939      8941
      8938      8936      8939      8942      8939      8942      8945      8946
      8939      8942      8945      8947      8939      8942      8945      8948
      8940      8939      8942      8943      8940      8939      8942      8944
      8940      8939      8942      8945      8941      8939      8942      8943
      8941      8939      8942      8944      8941      8939      8942      8945
      8942      8945      8948      8949      8942      8945      8948      8950
      8942      8945      8948      8951      8943      8942      8945      8946
      8943      8942      8945      8947      8943      8942      8945      8948
      8944      8942      8945      8946      8944      8942      8945      8947
      8944      8942      8945      8948      8945      8948      8951      8952
      8945      8948      8951      8953      8945      8948      8951      8954
      8946      8945      8948      8949      8946      8945      8948      8950
      8946      8945      8948      8951      8947      8945      8948      8949
      8947      8945      8948      8950      8947      8945      8948      8951
      8948      8951      8954      8955      8948      8951      8954      8956
      8948      8951      8954      8957      8949      8948      8951      8952
      8949      8948      8951      8953      8949      8948      8951      8954
      8950      8948      8951      8952      8950      8948      8951      8953
      8950      8948      8951      8954      8951      8954      8957      8958
      8951      8954      8957      8959      8951      8954      8957      8960
      8952      8951      8954      8955      8952      8951      8954      8956
      8952      8951      8954      8957      8953      8951      8954      8955
      8953      8951      8954      8956      8953      8951      8954      8957
      8954      8957      8960      8961      8954      8957      8960      8962
      8954      8957      8960      8963      8955      8954      8957      8958
      8955      8954      8957      8959      8955      8954      8957      8960
      8956      8954      8957      8958      8956      8954      8957      8959
      8956      8954      8957      8960      8957      8960      8963      8964
      8957      8960      8963      8965      8957      8960      8963      8966
      8958      8957      8960      8961      8958      8957      8960      8962
      8958      8957      8960      8963      8959      8957      8960      8961
      8959      8957      8960      8962      8959      8957      8960      8963
      8960      8963      8966      8967      8960      8963      8966      8968
      8960      8963      8966      8969      8961      8960      8963      8964
      8961      8960      8963      8965      8961      8960      8963      8966
      8962      8960      8963      8964      8962      8960      8963      8965
      8962      8960      8963      8966      8963      8966      8969      8970
      8963      8966      8969      8971      8963      8966      8969      8972
      8964      8963      8966      8967      8964      8963      8966      8968
      8964      8963      8966      8969      8965      8963      8966      8967
      8965      8963      8966      8968      8965      8963      8966      8969
      8966      8969      8972      8973      8966      8969      8972      8974
      8966      8969      8972      8975      8967      8966      8969      8970
      8967      8966      8969      8971      8967      8966      8969      8972
      8968      8966      8969      8970      8968      8966      8969      8971
      8968      8966      8969      8972      8970      8969      8972      8973
      8970      8969      8972      8974      8970      8969      8972      8975
      8971      8969      8972      8973      8971      8969      8972      8974
      8971      8969      8972      8975      8976      8980      8983      8984
      8976      8980      8983      9014      8976      9022      9019      9014
      8976      9022      9019      9020      8976      9022      9019      9021
      8977      8976      8978      8979      8977      8976      8980      8981
      8977      8976      8980      8982      8977      8976      8980      8983
      8977      8976      9022      9019      8977      8976      9022      9023
      8977      8976      9022      9024      8978      8976      8980      8981
      8978      8976      8980      8982      8978      8976      8980      8983
      8978      8976      9022      9019      8978      8976      9022      9023
      8978      8976      9022      9024      8979      8978      8976      8980
      8979      8978      8976      9022      8980      8976      9022      9019
      8980      8976      9022      9023      8980      8976      9022      9024
      8980      8983      8984      8985      8980      8983      8984      8986
      8980      8983      9014      9012      8980      8983      9014      9015
      8980      8983      9014      9019      8981      8980      8976      9022
      8981      8980      8983      8984      8981      8980      8983      9014
      8982      8980      8976      9022      8982      8980      8983      8984
      8982      8980      8983      9014      8983      8980      8976      9022
      8983      8984      8986      8987      8983      8984      8986      8988
      8983      8984      8986      8989      8983      9014      9012      8989
      8983      9014      9012      9009      8983      9014      9012      9013
      8983      9014      9015      9016      8983      9014      9015      9017
      8983      9014      9015      9018      8983      9014      9019      9020
      8983      9014      9019      9021      8983      9014      9019      9022
      8984      8983      9014      9012      8984      8983      9014      9015
      8984      8983      9014      9019      8984      8986      8989      8990
      8984      8986      8989      8991      8984      8986      8989      9012
      8985      8984      8983      9014      8985      8984      8986      8987
      8985      8984      8986      8988      8985      8984      8986      8989
      8986      8984      8983      9014      8986      8989      8991      8992
      8986      8989      8991      8993      8986      8989      8991      9001
      8986      8989      9012      9009      8986      8989      9012      9013
      8986      8989      9012      9014      8987      8986      8989      8990
      8987      8986      8989      8991      8987      8986      8989      9012
      8988      8986      8989      8990      8988      8986      8989      8991
      8988      8986      8989      9012      8989      8991      8993      8994
      8989      8991      8993      8995      8989      8991      8993      8996
      8989      8991      9001      8999      8989      8991      9001      9002
      8989      8991      9001      9006      8989      9012      9009      9006
      8989      9012      9009      9010      8989      9012      9009      9011
      8989      9012      9014      9015      8989      9012      9014      9019
      8990      8989      8991      8992      8990      8989      8991      8993
      8990      8989      8991      9001      8990      8989      9012      9009
      8990      8989      9012      9013      8990      8989      9012      9014
      8991      8989      9012      9009      8991      8989      9012      9013
      8991      8989      9012      9014      8991      8993      8996      8997
      8991      8993      8996      8998      8991      8993      8996      8999
      8991      9001      8999      8996      8991      9001      8999      9000
      8991      9001      8999      9025      8991      9001      9002      9003
      8991      9001      9002      9004      8991      9001      9002      9005
      8991      9001      9006      9007      8991      9001      9006      9008
      8991      9001      9006      9009      8992      8991      8989      9012
      8992      8991      8993      8994      8992      8991      8993      8995
      8992      8991      8993      8996      8992      8991      9001      8999
      8992      8991      9001      9002      8992      8991      9001      9006
      8993      8991      8989      9012      8993      8991      9001      8999
      8993      8991      9001      9002      8993      8991      9001      9006
      8993      8996      8999      9000      8993      8996      8999      9001
      8993      8996      8999      9025      8994      8993      8991      9001
      8994      8993      8996      8997      8994      8993      8996      8998
      8994      8993      8996      8999      8995      8993      8991      9001
      8995      8993      8996      8997      8995      8993      8996      8998
      8995      8993      8996      8999      8996      8993      8991      9001
      8996      8999      9001      9002      8996      8999      9001      9006
      8996      8999      9025      9026      8996      8999      9025      9027
      8996      8999      9025      9031      8997      8996      8999      9000
      8997      8996      8999      9001      8997      8996      8999      9025
      8998      8996      8999      9000      8998      8996      8999      9001
      8998      8996      8999      9025      8999      9001      9002      9003
      8999      9001      9002      9004      8999      9001      9002      9005
      8999      9001      9006      9007      8999      9001      9006      9008
      8999      9001      9006      9009      8999      9025      9027      9028
      8999      9025      9027      9029      8999      9025      9027      9030
      8999      9025      9031      9032      8999      9025      9031      9033
      8999      9025      9031      9034      9000      8999      9001      9002
      9000      8999      9001      9006      9000      8999      9025      9026
      9000      8999      9025      9027      9000      8999      9025      9031
      9001      8991      8989      9012      9001      8999      9025      9026
      9001      8999      9025      9027      9001      8999      9025      9031
      9001      9006      9009      9010      9001      9006      9009      9011
      9001      9006      9009      9012      9002      9001      8999      9025
      9002      9001      9006      9007      9002      9001      9006      9008
      9002      9001      9006      9009      9003      9002      9001      9006
      9004      9002      9001      9006      9005      9002      9001      9006
      9006      9001      8999      9025      9006      9009      9012      9013
      9006      9009      9012      9014      9007      9006      9009      9010
      9007      9006      9009      9011      9007      9006      9009      9012
      9008      9006      9009      9010      9008      9006      9009      9011
      9008      9006      9009      9012      9009      9012      9014      9015
      9009      9012      9014      9019      9010      9009      9012      9013
      9010      9009      9012      9014      9011      9009      9012      9013
      9011      9009      9012      9014      9012      9014      9015      9016
      9012      9014      9015      9017      9012      9014      9015      9018
      9012      9014      9019      9020      9012      9014      9019      9021
      9012      9014      9019      9022      9013      9012      9014      9015
      9013      9012      9014      9019      9014      9019      9022      9023
      9014      9019      9022      9024      9015      9014      9019      9020
      9015      9014      9019      9021      9015      9014      9019      9022
      9016      9015      9014      9019      9017      9015      9014      9019
      9018      9015      9014      9019      9020      9019      9022      9023
      9020      9019      9022      9024      9021      9019      9022      9023
      9021      9019      9022      9024      9025      9031      9034      9035
      9025      9031      9034      9036      9025      9031      9034      9037
      9026      9025      9027      9028      9026      9025      9027      9029
      9026      9025      9027      9030      9026      9025      9031      9032
      9026      9025      9031      9033      9026      9025      9031      9034
      9027      9025      9031      9032      9027      9025      9031      9033
      9027      9025      9031      9034      9028      9027      9025      9031
      9029      9027      9025      9031      9030      9027      9025      9031
      9031      9034      9037      9038      9031      9034      9037      9039
      9031      9034      9037      9040      9032      9031      9034      9035
      9032      9031      9034      9036      9032      9031      9034      9037
      9033      9031      9034      9035      9033      9031      9034      9036
      9033      9031      9034      9037      9034      9037      9040      9041
      9034      9037      9040      9042      9034      9037      9040      9046
      9035      9034      9037      9038      9035      9034      9037      9039
      9035      9034      9037      9040      9036      9034      9037      9038
      9036      9034      9037      9039      9036      9034      9037      9040
      9037      9040      9042      9043      9037      9040      9042      9044
      9037      9040      9042      9045      9037      9040      9046      9047
      9037      9040      9046      9048      9037      9040      9046      9049
      9038      9037      9040      9041      9038      9037      9040      9042
      9038      9037      9040      9046      9039      9037      9040      9041
      9039      9037      9040      9042      9039      9037      9040      9046
      9041      9040      9042      9043      9041      9040      9042      9044
      9041      9040      9042      9045      9041      9040      9046      9047
      9041      9040      9046      9048      9041      9040      9046      9049
      9042      9040      9046      9047      9042      9040      9046      9048
      9042      9040      9046      9049      9043      9042      9040      9046
      9044      9042      9040      9046      9045      9042      9040      9046
      9050      9054      9057      9058      9050      9054      9057      9059
      9050      9054      9057      9063      9051      9050      9054      9055
      9051      9050      9054      9056      9051      9050      9054      9057
      9052      9050      9054      9055      9052      9050      9054      9056
      9052      9050      9054      9057      9053      9050      9054      9055
      9053      9050      9054      9056      9053      9050      9054      9057
      9054      9057      9063      9060      9055      9054      9057      9058
      9055      9054      9057      9059      9055      9054      9057      9063
      9056      9054      9057      9058      9056      9054      9057      9059
      9056      9054      9057      9063      9057      9063      9060      9061
      9057      9063      9060      9062      9057      9063      9060      9064
      9058      9057      9063      9060      9059      9057      9063      9060
      9060      9064      9065      9066      9060      9064      9065      9067
      9060      9064      9065      9068      9061      9060      9064      9065
      9062      9060      9064      9065      9063      9060      9064      9065
      9064      9065      9068      9069      9064      9065      9068      9070
      9064      9065      9068      9076      9065      9068      9070      9071
      9065      9068      9076      9077      9065      9068      9076      9078
      9065      9068      9076      9079      9066      9065      9068      9069
      9066      9065      9068      9070      9066      9065      9068      9076
      9067      9065      9068      9069      9067      9065      9068      9070
      9067      9065      9068      9076      9068      9070      9071      9072
      9068      9070      9071      9073      9068      9076      9079      9080
      9069      9068      9070      9071      9069      9068      9076      9077
      9069      9068      9076      9078      9069      9068      9076      9079
      9070      9068      9076      9077      9070      9068      9076      9078
      9070      9068      9076      9079      9070      9071      9073      9074
      9070      9071      9073      9075      9070      9071      9073      9085
      9071      9070      9068      9076      9071      9073      9085      9086
      9071      9073      9085      9087      9071      9073      9085      9088
      9072      9071      9073      9074      9072      9071      9073      9075
      9072      9071      9073      9085      9073      9085      9088      9089
      9073      9085      9088      9090      9073      9085      9088      9091
      9074      9073      9085      9086      9074      9073      9085      9087
      9074      9073      9085      9088      9075      9073      9085      9086
      9075      9073      9085      9087      9075      9073      9085      9088
      9076      9079      9080      9081      9076      9079      9080      9082
      9077      9076      9079      9080      9078      9076      9079      9080
      9079      9080      9082      9083      9079      9080      9082      9084
      9079      9080      9082      9132      9080      9082      9132      9133
      9080      9082      9132      9134      9080      9082      9132      9135
      9081      9080      9082      9083      9081      9080      9082      9084
      9081      9080      9082      9132      9082      9132      9135      9136
      9082      9132      9135      9137      9082      9132      9135      9138
      9083      9082      9132      9133      9083      9082      9132      9134
      9083      9082      9132      9135      9084      9082      9132      9133
      9084      9082      9132      9134      9084      9082      9132      9135
      9085      9088      9091      9092      9085      9088      9091      9093
      9086      9085      9088      9089      9086      9085      9088      9090
      9086      9085      9088      9091      9087      9085      9088      9089
      9087      9085      9088      9090      9087      9085      9088      9091
      9088      9091      9093      9094      9088      9091      9093      9095
      9089      9088      9091      9092      9089      9088      9091      9093
      9090      9088      9091      9092      9090      9088      9091      9093
      9091      9093      9095      9096      9091      9093      9095      9097
      9091      9093      9095      9098      9092      9091      9093      9094
      9092      9091      9093      9095      9093      9095      9098      9099
      9093      9095      9098      9100      9094      9093      9095      9096
      9094      9093      9095      9097      9094      9093      9095      9098
      9095      9098      9100      9101      9095      9098      9100      9102
      9096      9095      9098      9099      9096      9095      9098      9100
      9097      9095      9098      9099      9097      9095      9098      9100
      9098      9100      9102      9103      9098      9100      9102      9104
      9098      9100      9102      9105      9099      9098      9100      9101
      9099      9098      9100      9102      9100      9102      9105      9106
      9100      9102      9105      9107      9101      9100      9102      9103
      9101      9100      9102      9104      9101      9100      9102      9105
      9102      9105      9107      9108      9102      9105      9107      9109
      9103      9102      9105      9106      9103      9102      9105      9107
      9104      9102      9105      9106      9104      9102      9105      9107
      9105      9107      9109      9110      9105      9107      9109      9111
      9105      9107      9109      9112      9106      9105      9107      9108
      9106      9105      9107      9109      9107      9109      9112      9113
      9107      9109      9112      9114      9108      9107      9109      9110
      9108      9107      9109      9111      9108      9107      9109      9112
      9109      9112      9114      9115      9109      9112      9114      9116
      9110      9109      9112      9113      9110      9109      9112      9114
      9111      9109      9112      9113      9111      9109      9112      9114
      9112      9114      9116      9117      9112      9114      9116      9118
      9112      9114      9116      9119      9113      9112      9114      9115
      9113      9112      9114      9116      9114      9116      9119      9120
      9114      9116      9119      9121      9114      9116      9119      9122
      9115      9114      9116      9117      9115      9114      9116      9118
      9115      9114      9116      9119      9116      9119      9122      9123
      9116      9119      9122      9124      9116      9119      9122      9125
      9117      9116      9119      9120      9117      9116      9119      9121
      9117      9116      9119      9122      9118      9116      9119      9120
      9118      9116      9119      9121      9118      9116      9119      9122
      9119      9122      9125      9126      9119      9122      9125      9127
      9119      9122      9125      9128      9120      9119      9122      9123
      9120      9119      9122      9124      9120      9119      9122      9125
      9121      9119      9122      9123      9121      9119      9122      9124
      9121      9119      9122      9125      9122      9125      9128      9129
      9122      9125      9128      9130      9122      9125      9128      9131
      9123      9122      9125      9126      9123      9122      9125      9127
      9123      9122      9125      9128      9124      9122      9125      9126
      9124      9122      9125      9127      9124      9122      9125      9128
      9126      9125      9128      9129      9126      9125      9128      9130
      9126      9125      9128      9131      9127      9125      9128      9129
      9127      9125      9128      9130      9127      9125      9128      9131
      9132      9135      9138      9139      9132      9135      9138      9140
      9132      9135      9138      9141      9133      9132      9135      9136
      9133      9132      9135      9137      9133      9132      9135      9138
      9134      9132      9135      9136      9134      9132      9135      9137
      9134      9132      9135      9138      9135      9138      9141      9142
      9135      9138      9141      9143      9135      9138      9141      9144
      9136      9135      9138      9139      9136      9135      9138      9140
      9136      9135      9138      9141      9137      9135      9138      9139
      9137      9135      9138      9140      9137      9135      9138      9141
      9138      9141      9144      9145      9138      9141      9144      9146
      9138      9141      9144      9147      9139      9138      9141      9142
      9139      9138      9141      9143      9139      9138      9141      9144
      9140      9138      9141      9142      9140      9138      9141      9143
      9140      9138      9141      9144      9141      9144      9147      9148
      9141      9144      9147      9149      9141      9144      9147      9150
      9142      9141      9144      9145      9142      9141      9144      9146
      9142      9141      9144      9147      9143      9141      9144      9145
      9143      9141      9144      9146      9143      9141      9144      9147
      9144      9147      9150      9151      9144      9147      9150      9152
      9144      9147      9150      9153      9145      9144      9147      9148
      9145      9144      9147      9149      9145      9144      9147      9150
      9146      9144      9147      9148      9146      9144      9147      9149
      9146      9144      9147      9150      9147      9150      9153      9154
      9147      9150      9153      9155      9147      9150      9153      9156
      9148      9147      9150      9151      9148      9147      9150      9152
      9148      9147      9150      9153      9149      9147      9150      9151
      9149      9147      9150      9152      9149      9147      9150      9153
      9150      9153      9156      9157      9150      9153      9156      9158
      9150      9153      9156      9159      9151      9150      9153      9154
      9151      9150      9153      9155      9151      9150      9153      9156
      9152      9150      9153      9154      9152      9150      9153      9155
      9152      9150      9153      9156      9153      9156      9159      9160
      9153      9156      9159      9161      9153      9156      9159      9162
      9154      9153      9156      9157      9154      9153      9156      9158
      9154      9153      9156      9159      9155      9153      9156      9157
      9155      9153      9156      9158      9155      9153      9156      9159
      9156      9159      9162      9163      9156      9159      9162      9164
      9156      9159      9162      9165      9157      9156      9159      9160
      9157      9156      9159      9161      9157      9156      9159      9162
      9158      9156      9159      9160      9158      9156      9159      9161
      9158      9156      9159      9162      9159      9162      9165      9166
      9159      9162      9165      9167      9159      9162      9165      9168
      9160      9159      9162      9163      9160      9159      9162      9164
      9160      9159      9162      9165      9161      9159      9162      9163
      9161      9159      9162      9164      9161      9159      9162      9165
      9162      9165      9168      9169      9162      9165      9168      9170
      9162      9165      9168      9171      9163      9162      9165      9166
      9163      9162      9165      9167      9163      9162      9165      9168
      9164      9162      9165      9166      9164      9162      9165      9167
      9164      9162      9165      9168      9165      9168      9171      9172
      9165      9168      9171      9173      9165      9168      9171      9174
      9166      9165      9168      9169      9166      9165      9168      9170
      9166      9165      9168      9171      9167      9165      9168      9169
      9167      9165      9168      9170      9167      9165      9168      9171
      9168      9171      9174      9175      9168      9171      9174      9176
      9168      9171      9174      9177      9169      9168      9171      9172
      9169      9168      9171      9173      9169      9168      9171      9174
      9170      9168      9171      9172      9170      9168      9171      9173
      9170      9168      9171      9174      9171      9174      9177      9178
      9171      9174      9177      9179      9171      9174      9177      9180
      9172      9171      9174      9175      9172      9171      9174      9176
      9172      9171      9174      9177      9173      9171      9174      9175
      9173      9171      9174      9176      9173      9171      9174      9177
      9175      9174      9177      9178      9175      9174      9177      9179
      9175      9174      9177      9180      9176      9174      9177      9178
      9176      9174      9177      9179      9176      9174      9177      9180
      9181      9182      9197      9198      9181      9182      9197      9199
      9181      9182      9197      9203      9182      9181      9185      9186
      9182      9181      9185      9187      9182      9181      9185      9188
      9182      9181      9189      9190      9182      9181      9189      9191
      9182      9181      9189      9192      9182      9181      9193      9194
      9182      9181      9193      9195      9182      9181      9193      9196
      9182      9197      9203      9200      9183      9182      9181      9185
      9183      9182      9181      9189      9183      9182      9181      9193
      9183      9182      9197      9198      9183      9182      9197      9199
      9183      9182      9197      9203      9184      9182      9181      9185
      9184      9182      9181      9189      9184      9182      9181      9193
      9184      9182      9197      9198      9184      9182      9197      9199
      9184      9182      9197      9203      9185      9181      9182      9197
      9185      9181      9189      9190      9185      9181      9189      9191
      9185      9181      9189      9192      9185      9181      9193      9194
      9185      9181      9193      9195      9185      9181      9193      9196
      9186      9185      9181      9189      9186      9185      9181      9193
      9187      9185      9181      9189      9187      9185      9181      9193
      9188      9185      9181      9189      9188      9185      9181      9193
      9189      9181      9182      9197      9189      9181      9193      9194
      9189      9181      9193      9195      9189      9181      9193      9196
      9190      9189      9181      9193      9191      9189      9181      9193
      9192      9189      9181      9193      9193      9181      9182      9197
      9197      9203      9200      9201      9197      9203      9200      9202
      9197      9203      9200      9204      9198      9197      9203      9200
      9199      9197      9203      9200      9200      9204      9205      9206
      9200      9204      9205      9207      9200      9204      9205      9208
      9201      9200      9204      9205      9202      9200      9204      9205
      9203      9200      9204      9205      9204      9205      9208      9209
      9204      9205      9208      9210      9204      9205      9208      9216
      9205      9208      9210      9211      9205      9208      9216      9217
      9205      9208      9216      9218      9205      9208      9216      9219
      9206      9205      9208      9209      9206      9205      9208      9210
      9206      9205      9208      9216      9207      9205      9208      9209
      9207      9205      9208      9210      9207      9205      9208      9216
      9208      9210      9211      9212      9208      9210      9211      9213
      9208      9216      9219      9220      9209      9208      9210      9211
      9209      9208      9216      9217      9209      9208      9216      9218
      9209      9208      9216      9219      9210      9208      9216      9217
      9210      9208      9216      9218      9210      9208      9216      9219
      9210      9211      9213      9214      9210      9211      9213      9215
      9210      9211      9213      9225      9211      9210      9208      9216
      9211      9213      9225      9226      9211      9213      9225      9227
      9211      9213      9225      9228      9212      9211      9213      9214
      9212      9211      9213      9215      9212      9211      9213      9225
      9213      9225      9228      9229      9213      9225      9228      9230
      9213      9225      9228      9231      9214      9213      9225      9226
      9214      9213      9225      9227      9214      9213      9225      9228
      9215      9213      9225      9226      9215      9213      9225      9227
      9215      9213      9225      9228      9216      9219      9220      9221
      9216      9219      9220      9222      9217      9216      9219      9220
      9218      9216      9219      9220      9219      9220      9222      9223
      9219      9220      9222      9224      9219      9220      9222      9272
      9220      9222      9272      9273      9220      9222      9272      9274
      9220      9222      9272      9275      9221      9220      9222      9223
      9221      9220      9222      9224      9221      9220      9222      9272
      9222      9272      9275      9276      9222      9272      9275      9277
      9222      9272      9275      9278      9223      9222      9272      9273
      9223      9222      9272      9274      9223      9222      9272      9275
      9224      9222      9272      9273      9224      9222      9272      9274
      9224      9222      9272      9275      9225      9228      9231      9232
      9225      9228      9231      9233      9226      9225      9228      9229
      9226      9225      9228      9230      9226      9225      9228      9231
      9227      9225      9228      9229      9227      9225      9228      9230
      9227      9225      9228      9231      9228      9231      9233      9234
      9228      9231      9233      9235      9229      9228      9231      9232
      9229      9228      9231      9233      9230      9228      9231      9232
      9230      9228      9231      9233      9231      9233      9235      9236
      9231      9233      9235      9237      9231      9233      9235      9238
      9232      9231      9233      9234      9232      9231      9233      9235
      9233      9235      9238      9239      9233      9235      9238      9240
      9234      9233      9235      9236      9234      9233      9235      9237
      9234      9233      9235      9238      9235      9238      9240      9241
      9235      9238      9240      9242      9236      9235      9238      9239
      9236      9235      9238      9240      9237      9235      9238      9239
      9237      9235      9238      9240      9238      9240      9242      9243
      9238      9240      9242      9244      9238      9240      9242      9245
      9239      9238      9240      9241      9239      9238      9240      9242
      9240      9242      9245      9246      9240      9242      9245      9247
      9241      9240      9242      9243      9241      9240      9242      9244
      9241      9240      9242      9245      9242      9245      9247      9248
      9242      9245      9247      9249      9243      9242      9245      9246
      9243      9242      9245      9247      9244      9242      9245      9246
      9244      9242      9245      9247      9245      9247      9249      9250
      9245      9247      9249      9251      9245      9247      9249      9252
      9246      9245      9247      9248      9246      9245      9247      9249
      9247      9249      9252      9253      9247      9249      9252      9254
      9248      9247      9249      9250      9248      9247      9249      9251
      9248      9247      9249      9252      9249      9252      9254      9255
      9249      9252      9254      9256      9250      9249      9252      9253
      9250      9249      9252      9254      9251      9249      9252      9253
      9251      9249      9252      9254      9252      9254      9256      9257
      9252      9254      9256      9258      9252      9254      9256      9259
      9253      9252      9254      9255      9253      9252      9254      9256
      9254      9256      9259      9260      9254      9256      9259      9261
      9254      9256      9259      9262      9255      9254      9256      9257
      9255      9254      9256      9258      9255      9254      9256      9259
      9256      9259      9262      9263      9256      9259      9262      9264
      9256      9259      9262      9265      9257      9256      9259      9260
      9257      9256      9259      9261      9257      9256      9259      9262
      9258      9256      9259      9260      9258      9256      9259      9261
      9258      9256      9259      9262      9259      9262      9265      9266
      9259      9262      9265      9267      9259      9262      9265      9268
      9260      9259      9262      9263      9260      9259      9262      9264
      9260      9259      9262      9265      9261      9259      9262      9263
      9261      9259      9262      9264      9261      9259      9262      9265
      9262      9265      9268      9269      9262      9265      9268      9270
      9262      9265      9268      9271      9263      9262      9265      9266
      9263      9262      9265      9267      9263      9262      9265      9268
      9264      9262      9265      9266      9264      9262      9265      9267
      9264      9262      9265      9268      9266      9265      9268      9269
      9266      9265      9268      9270      9266      9265      9268      9271
      9267      9265      9268      9269      9267      9265      9268      9270
      9267      9265      9268      9271      9272      9275      9278      9279
      9272      9275      9278      9280      9272      9275      9278      9281
      9273      9272      9275      9276      9273      9272      9275      9277
      9273      9272      9275      9278      9274      9272      9275      9276
      9274      9272      9275      9277      9274      9272      9275      9278
      9275      9278      9281      9282      9275      9278      9281      9283
      9275      9278      9281      9284      9276      9275      9278      9279
      9276      9275      9278      9280      9276      9275      9278      9281
      9277      9275      9278      9279      9277      9275      9278      9280
      9277      9275      9278      9281      9278      9281      9284      9285
      9278      9281      9284      9286      9278      9281      9284      9287
      9279      9278      9281      9282      9279      9278      9281      9283
      9279      9278      9281      9284      9280      9278      9281      9282
      9280      9278      9281      9283      9280      9278      9281      9284
      9281      9284      9287      9288      9281      9284      9287      9289
      9281      9284      9287      9290      9282      9281      9284      9285
      9282      9281      9284      9286      9282      9281      9284      9287
      9283      9281      9284      9285      9283      9281      9284      9286
      9283      9281      9284      9287      9284      9287      9290      9291
      9284      9287      9290      9292      9284      9287      9290      9293
      9285      9284      9287      9288      9285      9284      9287      9289
      9285      9284      9287      9290      9286      9284      9287      9288
      9286      9284      9287      9289      9286      9284      9287      9290
      9287      9290      9293      9294      9287      9290      9293      9295
      9287      9290      9293      9296      9288      9287      9290      9291
      9288      9287      9290      9292      9288      9287      9290      9293
      9289      9287      9290      9291      9289      9287      9290      9292
      9289      9287      9290      9293      9290      9293      9296      9297
      9290      9293      9296      9298      9290      9293      9296      9299
      9291      9290      9293      9294      9291      9290      9293      9295
      9291      9290      9293      9296      9292      9290      9293      9294
      9292      9290      9293      9295      9292      9290      9293      9296
      9293      9296      9299      9300      9293      9296      9299      9301
      9293      9296      9299      9302      9294      9293      9296      9297
      9294      9293      9296      9298      9294      9293      9296      9299
      9295      9293      9296      9297      9295      9293      9296      9298
      9295      9293      9296      9299      9296      9299      9302      9303
      9296      9299      9302      9304      9296      9299      9302      9305
      9297      9296      9299      9300      9297      9296      9299      9301
      9297      9296      9299      9302      9298      9296      9299      9300
      9298      9296      9299      9301      9298      9296      9299      9302
      9299      9302      9305      9306      9299      9302      9305      9307
      9299      9302      9305      9308      9300      9299      9302      9303
      9300      9299      9302      9304      9300      9299      9302      9305
      9301      9299      9302      9303      9301      9299      9302      9304
      9301      9299      9302      9305      9302      9305      9308      9309
      9302      9305      9308      9310      9302      9305      9308      9311
      9303      9302      9305      9306      9303      9302      9305      9307
      9303      9302      9305      9308      9304      9302      9305      9306
      9304      9302      9305      9307      9304      9302      9305      9308
      9305      9308      9311      9312      9305      9308      9311      9313
      9305      9308      9311      9314      9306      9305      9308      9309
      9306      9305      9308      9310      9306      9305      9308      9311
      9307      9305      9308      9309      9307      9305      9308      9310
      9307      9305      9308      9311      9308      9311      9314      9315
      9308      9311      9314      9316      9308      9311      9314      9317
      9309      9308      9311      9312      9309      9308      9311      9313
      9309      9308      9311      9314      9310      9308      9311      9312
      9310      9308      9311      9313      9310      9308      9311      9314
      9311      9314      9317      9318      9311      9314      9317      9319
      9311      9314      9317      9320      9312      9311      9314      9315
      9312      9311      9314      9316      9312      9311      9314      9317
      9313      9311      9314      9315      9313      9311      9314      9316
      9313      9311      9314      9317      9315      9314      9317      9318
      9315      9314      9317      9319      9315      9314      9317      9320
      9316      9314      9317      9318      9316      9314      9317      9319
      9316      9314      9317      9320      9321      9325      9327      9328
      9321      9325      9327      9329      9321      9325      9330      9331
      9321      9325      9330      9332      9321      9325      9330      9336
      9322      9321      9325      9326      9322      9321      9325      9327
      9322      9321      9325      9330      9323      9321      9325      9326
      9323      9321      9325      9327      9323      9321      9325      9330
      9324      9321      9325      9326      9324      9321      9325      9327
      9324      9321      9325      9330      9325      9330      9336      9333
      9326      9325      9327      9328      9326      9325      9327      9329
      9326      9325      9330      9331      9326      9325      9330      9332
      9326      9325      9330      9336      9327      9325      9330      9331
      9327      9325      9330      9332      9327      9325      9330      9336
      9328      9327      9325      9330      9329      9327      9325      9330
      9330      9336      9333      9334      9330      9336      9333      9335
      9330      9336      9333      9337      9331      9330      9336      9333
      9332      9330      9336      9333      9333      9337      9338      9339
      9333      9337      9338      9340      9333      9337      9338      9341
      9334      9333      9337      9338      9335      9333      9337      9338
      9336      9333      9337      9338      9337      9338      9341      9342
      9337      9338      9341      9343      9337      9338      9341      9349
      9338      9341      9343      9344      9338      9341      9349      9350
      9338      9341      9349      9351      9338      9341      9349      9352
      9339      9338      9341      9342      9339      9338      9341      9343
      9339      9338      9341      9349      9340      9338      9341      9342
      9340      9338      9341      9343      9340      9338      9341      9349
      9341      9343      9344      9345      9341      9343      9344      9346
      9341      9349      9352      9353      9342      9341      9343      9344
      9342      9341      9349      9350      9342      9341      9349      9351
      9342      9341      9349      9352      9343      9341      9349      9350
      9343      9341      9349      9351      9343      9341      9349      9352
      9343      9344      9346      9347      9343      9344      9346      9348
      9343      9344      9346      9358      9344      9343      9341      9349
      9344      9346      9358      9359      9344      9346      9358      9360
      9344      9346      9358      9361      9345      9344      9346      9347
      9345      9344      9346      9348      9345      9344      9346      9358
      9346      9358      9361      9362      9346      9358      9361      9363
      9346      9358      9361      9364      9347      9346      9358      9359
      9347      9346      9358      9360      9347      9346      9358      9361
      9348      9346      9358      9359      9348      9346      9358      9360
      9348      9346      9358      9361      9349      9352      9353      9354
      9349      9352      9353      9355      9350      9349      9352      9353
      9351      9349      9352      9353      9352      9353      9355      9356
      9352      9353      9355      9357      9352      9353      9355      9405
      9353      9355      9405      9406      9353      9355      9405      9407
      9353      9355      9405      9408      9354      9353      9355      9356
      9354      9353      9355      9357      9354      9353      9355      9405
      9355      9405      9408      9409      9355      9405      9408      9410
      9355      9405      9408      9411      9356      9355      9405      9406
      9356      9355      9405      9407      9356      9355      9405      9408
      9357      9355      9405      9406      9357      9355      9405      9407
      9357      9355      9405      9408      9358      9361      9364      9365
      9358      9361      9364      9366      9359      9358      9361      9362
      9359      9358      9361      9363      9359      9358      9361      9364
      9360      9358      9361      9362      9360      9358      9361      9363
      9360      9358      9361      9364      9361      9364      9366      9367
      9361      9364      9366      9368      9362      9361      9364      9365
      9362      9361      9364      9366      9363      9361      9364      9365
      9363      9361      9364      9366      9364      9366      9368      9369
      9364      9366      9368      9370      9364      9366      9368      9371
      9365      9364      9366      9367      9365      9364      9366      9368
      9366      9368      9371      9372      9366      9368      9371      9373
      9367      9366      9368      9369      9367      9366      9368      9370
      9367      9366      9368      9371      9368      9371      9373      9374
      9368      9371      9373      9375      9369      9368      9371      9372
      9369      9368      9371      9373      9370      9368      9371      9372
      9370      9368      9371      9373      9371      9373      9375      9376
      9371      9373      9375      9377      9371      9373      9375      9378
      9372      9371      9373      9374      9372      9371      9373      9375
      9373      9375      9378      9379      9373      9375      9378      9380
      9374      9373      9375      9376      9374      9373      9375      9377
      9374      9373      9375      9378      9375      9378      9380      9381
      9375      9378      9380      9382      9376      9375      9378      9379
      9376      9375      9378      9380      9377      9375      9378      9379
      9377      9375      9378      9380      9378      9380      9382      9383
      9378      9380      9382      9384      9378      9380      9382      9385
      9379      9378      9380      9381      9379      9378      9380      9382
      9380      9382      9385      9386      9380      9382      9385      9387
      9381      9380      9382      9383      9381      9380      9382      9384
      9381      9380      9382      9385      9382      9385      9387      9388
      9382      9385      9387      9389      9383      9382      9385      9386
      9383      9382      9385      9387      9384      9382      9385      9386
      9384      9382      9385      9387      9385      9387      9389      9390
      9385      9387      9389      9391      9385      9387      9389      9392
      9386      9385      9387      9388      9386      9385      9387      9389
      9387      9389      9392      9393      9387      9389      9392      9394
      9387      9389      9392      9395      9388      9387      9389      9390
      9388      9387      9389      9391      9388      9387      9389      9392
      9389      9392      9395      9396      9389      9392      9395      9397
      9389      9392      9395      9398      9390      9389      9392      9393
      9390      9389      9392      9394      9390      9389      9392      9395
      9391      9389      9392      9393      9391      9389      9392      9394
      9391      9389      9392      9395      9392      9395      9398      9399
      9392      9395      9398      9400      9392      9395      9398      9401
      9393      9392      9395      9396      9393      9392      9395      9397
      9393      9392      9395      9398      9394      9392      9395      9396
      9394      9392      9395      9397      9394      9392      9395      9398
      9395      9398      9401      9402      9395      9398      9401      9403
      9395      9398      9401      9404      9396      9395      9398      9399
      9396      9395      9398      9400      9396      9395      9398      9401
      9397      9395      9398      9399      9397      9395      9398      9400
      9397      9395      9398      9401      9399      9398      9401      9402
      9399      9398      9401      9403      9399      9398      9401      9404
      9400      9398      9401      9402      9400      9398      9401      9403
      9400      9398      9401      9404      9405      9408      9411      9412
      9405      9408      9411      9413      9405      9408      9411      9414
      9406      9405      9408      9409      9406      9405      9408      9410
      9406      9405      9408      9411      9407      9405      9408      9409
      9407      9405      9408      9410      9407      9405      9408      9411
      9408      9411      9414      9415      9408      9411      9414      9416
      9408      9411      9414      9417      9409      9408      9411      9412
      9409      9408      9411      9413      9409      9408      9411      9414
      9410      9408      9411      9412      9410      9408      9411      9413
      9410      9408      9411      9414      9411      9414      9417      9418
      9411      9414      9417      9419      9411      9414      9417      9420
      9412      9411      9414      9415      9412      9411      9414      9416
      9412      9411      9414      9417      9413      9411      9414      9415
      9413      9411      9414      9416      9413      9411      9414      9417
      9414      9417      9420      9421      9414      9417      9420      9422
      9414      9417      9420      9423      9415      9414      9417      9418
      9415      9414      9417      9419      9415      9414      9417      9420
      9416      9414      9417      9418      9416      9414      9417      9419
      9416      9414      9417      9420      9417      9420      9423      9424
      9417      9420      9423      9425      9417      9420      9423      9426
      9418      9417      9420      9421      9418      9417      9420      9422
      9418      9417      9420      9423      9419      9417      9420      9421
      9419      9417      9420      9422      9419      9417      9420      9423
      9420      9423      9426      9427      9420      9423      9426      9428
      9420      9423      9426      9429      9421      9420      9423      9424
      9421      9420      9423      9425      9421      9420      9423      9426
      9422      9420      9423      9424      9422      9420      9423      9425
      9422      9420      9423      9426      9423      9426      9429      9430
      9423      9426      9429      9431      9423      9426      9429      9432
      9424      9423      9426      9427      9424      9423      9426      9428
      9424      9423      9426      9429      9425      9423      9426      9427
      9425      9423      9426      9428      9425      9423      9426      9429
      9426      9429      9432      9433      9426      9429      9432      9434
      9426      9429      9432      9435      9427      9426      9429      9430
      9427      9426      9429      9431      9427      9426      9429      9432
      9428      9426      9429      9430      9428      9426      9429      9431
      9428      9426      9429      9432      9429      9432      9435      9436
      9429      9432      9435      9437      9429      9432      9435      9438
      9430      9429      9432      9433      9430      9429      9432      9434
      9430      9429      9432      9435      9431      9429      9432      9433
      9431      9429      9432      9434      9431      9429      9432      9435
      9432      9435      9438      9439      9432      9435      9438      9440
      9432      9435      9438      9441      9433      9432      9435      9436
      9433      9432      9435      9437      9433      9432      9435      9438
      9434      9432      9435      9436      9434      9432      9435      9437
      9434      9432      9435      9438      9435      9438      9441      9442
      9435      9438      9441      9443      9435      9438      9441      9444
      9436      9435      9438      9439      9436      9435      9438      9440
      9436      9435      9438      9441      9437      9435      9438      9439
      9437      9435      9438      9440      9437      9435      9438      9441
      9438      9441      9444      9445      9438      9441      9444      9446
      9438      9441      9444      9447      9439      9438      9441      9442
      9439      9438      9441      9443      9439      9438      9441      9444
      9440      9438      9441      9442      9440      9438      9441      9443
      9440      9438      9441      9444      9441      9444      9447      9448
      9441      9444      9447      9449      9441      9444      9447      9450
      9442      9441      9444      9445      9442      9441      9444      9446
      9442      9441      9444      9447      9443      9441      9444      9445
      9443      9441      9444      9446      9443      9441      9444      9447
      9444      9447      9450      9451      9444      9447      9450      9452
      9444      9447      9450      9453      9445      9444      9447      9448
      9445      9444      9447      9449      9445      9444      9447      9450
      9446      9444      9447      9448      9446      9444      9447      9449
      9446      9444      9447      9450      9448      9447      9450      9451
      9448      9447      9450      9452      9448      9447      9450      9453
      9449      9447      9450      9451      9449      9447      9450      9452
      9449      9447      9450      9453      9454      9458      9461      9462
      9454      9458      9461      9492      9454      9500      9497      9492
      9454      9500      9497      9498      9454      9500      9497      9499
      9455      9454      9456      9457      9455      9454      9458      9459
      9455      9454      9458      9460      9455      9454      9458      9461
      9455      9454      9500      9497      9455      9454      9500      9501
      9455      9454      9500      9502      9456      9454      9458      9459
      9456      9454      9458      9460      9456      9454      9458      9461
      9456      9454      9500      9497      9456      9454      9500      9501
      9456      9454      9500      9502      9457      9456      9454      9458
      9457      9456      9454      9500      9458      9454      9500      9497
      9458      9454      9500      9501      9458      9454      9500      9502
      9458      9461      9462      9463      9458      9461      9462      9464
      9458      9461      9492      9490      9458      9461      9492      9493
      9458      9461      9492      9497      9459      9458      9454      9500
      9459      9458      9461      9462      9459      9458      9461      9492
      9460      9458      9454      9500      9460      9458      9461      9462
      9460      9458      9461      9492      9461      9458      9454      9500
      9461      9462      9464      9465      9461      9462      9464      9466
      9461      9462      9464      9467      9461      9492      9490      9467
      9461      9492      9490      9487      9461      9492      9490      9491
      9461      9492      9493      9494      9461      9492      9493      9495
      9461      9492      9493      9496      9461      9492      9497      9498
      9461      9492      9497      9499      9461      9492      9497      9500
      9462      9461      9492      9490      9462      9461      9492      9493
      9462      9461      9492      9497      9462      9464      9467      9468
      9462      9464      9467      9469      9462      9464      9467      9490
      9463      9462      9461      9492      9463      9462      9464      9465
      9463      9462      9464      9466      9463      9462      9464      9467
      9464      9462      9461      9492      9464      9467      9469      9470
      9464      9467      9469      9471      9464      9467      9469      9479
      9464      9467      9490      9487      9464      9467      9490      9491
      9464      9467      9490      9492      9465      9464      9467      9468
      9465      9464      9467      9469      9465      9464      9467      9490
      9466      9464      9467      9468      9466      9464      9467      9469
      9466      9464      9467      9490      9467      9469      9471      9472
      9467      9469      9471      9473      9467      9469      9471      9474
      9467      9469      9479      9477      9467      9469      9479      9480
      9467      9469      9479      9484      9467      9490      9487      9484
      9467      9490      9487      9488      9467      9490      9487      9489
      9467      9490      9492      9493      9467      9490      9492      9497
      9468      9467      9469      9470      9468      9467      9469      9471
      9468      9467      9469      9479      9468      9467      9490      9487
      9468      9467      9490      9491      9468      9467      9490      9492
      9469      9467      9490      9487      9469      9467      9490      9491
      9469      9467      9490      9492      9469      9471      9474      9475
      9469      9471      9474      9476      9469      9471      9474      9477
      9469      9479      9477      9474      9469      9479      9477      9478
      9469      9479      9477      9503      9469      9479      9480      9481
      9469      9479      9480      9482      9469      9479      9480      9483
      9469      9479      9484      9485      9469      9479      9484      9486
      9469      9479      9484      9487      9470      9469      9467      9490
      9470      9469      9471      9472      9470      9469      9471      9473
      9470      9469      9471      9474      9470      9469      9479      9477
      9470      9469      9479      9480      9470      9469      9479      9484
      9471      9469      9467      9490      9471      9469      9479      9477
      9471      9469      9479      9480      9471      9469      9479      9484
      9471      9474      9477      9478      9471      9474      9477      9479
      9471      9474      9477      9503      9472      9471      9469      9479
      9472      9471      9474      9475      9472      9471      9474      9476
      9472      9471      9474      9477      9473      9471      9469      9479
      9473      9471      9474      9475      9473      9471      9474      9476
      9473      9471      9474      9477      9474      9471      9469      9479
      9474      9477      9479      9480      9474      9477      9479      9484
      9474      9477      9503      9504      9474      9477      9503      9505
      9474      9477      9503      9509      9475      9474      9477      9478
      9475      9474      9477      9479      9475      9474      9477      9503
      9476      9474      9477      9478      9476      9474      9477      9479
      9476      9474      9477      9503      9477      9479      9480      9481
      9477      9479      9480      9482      9477      9479      9480      9483
      9477      9479      9484      9485      9477      9479      9484      9486
      9477      9479      9484      9487      9477      9503      9505      9506
      9477      9503      9505      9507      9477      9503      9505      9508
      9477      9503      9509      9510      9477      9503      9509      9511
      9477      9503      9509      9512      9478      9477      9479      9480
      9478      9477      9479      9484      9478      9477      9503      9504
      9478      9477      9503      9505      9478      9477      9503      9509
      9479      9469      9467      9490      9479      9477      9503      9504
      9479      9477      9503      9505      9479      9477      9503      9509
      9479      9484      9487      9488      9479      9484      9487      9489
      9479      9484      9487      9490      9480      9479      9477      9503
      9480      9479      9484      9485      9480      9479      9484      9486
      9480      9479      9484      9487      9481      9480      9479      9484
      9482      9480      9479      9484      9483      9480      9479      9484
      9484      9479      9477      9503      9484      9487      9490      9491
      9484      9487      9490      9492      9485      9484      9487      9488
      9485      9484      9487      9489      9485      9484      9487      9490
      9486      9484      9487      9488      9486      9484      9487      9489
      9486      9484      9487      9490      9487      9490      9492      9493
      9487      9490      9492      9497      9488      9487      9490      9491
      9488      9487      9490      9492      9489      9487      9490      9491
      9489      9487      9490      9492      9490      9492      9493      9494
      9490      9492      9493      9495      9490      9492      9493      9496
      9490      9492      9497      9498      9490      9492      9497      9499
      9490      9492      9497      9500      9491      9490      9492      9493
      9491      9490      9492      9497      9492      9497      9500      9501
      9492      9497      9500      9502      9493      9492      9497      9498
      9493      9492      9497      9499      9493      9492      9497      9500
      9494      9493      9492      9497      9495      9493      9492      9497
      9496      9493      9492      9497      9498      9497      9500      9501
      9498      9497      9500      9502      9499      9497      9500      9501
      9499      9497      9500      9502      9503      9509      9512      9513
      9503      9509      9512      9514      9503      9509      9512      9515
      9504      9503      9505      9506      9504      9503      9505      9507
      9504      9503      9505      9508      9504      9503      9509      9510
      9504      9503      9509      9511      9504      9503      9509      9512
      9505      9503      9509      9510      9505      9503      9509      9511
      9505      9503      9509      9512      9506      9505      9503      9509
      9507      9505      9503      9509      9508      9505      9503      9509
      9509      9512      9515      9516      9509      9512      9515      9517
      9509      9512      9515      9518      9510      9509      9512      9513
      9510      9509      9512      9514      9510      9509      9512      9515
      9511      9509      9512      9513      9511      9509      9512      9514
      9511      9509      9512      9515      9512      9515      9518      9519
      9512      9515      9518      9520      9512      9515      9518      9524
      9513      9512      9515      9516      9513      9512      9515      9517
      9513      9512      9515      9518      9514      9512      9515      9516
      9514      9512      9515      9517      9514      9512      9515      9518
      9515      9518      9520      9521      9515      9518      9520      9522
      9515      9518      9520      9523      9515      9518      9524      9525
      9515      9518      9524      9526      9515      9518      9524      9527
      9516      9515      9518      9519      9516      9515      9518      9520
      9516      9515      9518      9524      9517      9515      9518      9519
      9517      9515      9518      9520      9517      9515      9518      9524
      9519      9518      9520      9521      9519      9518      9520      9522
      9519      9518      9520      9523      9519      9518      9524      9525
      9519      9518      9524      9526      9519      9518      9524      9527
      9520      9518      9524      9525      9520      9518      9524      9526
      9520      9518      9524      9527      9521      9520      9518      9524
      9522      9520      9518      9524      9523      9520      9518      9524
      9528      9541      9544      9545      9528      9541      9544      9546
      9528      9541      9544      9551      9529      9528      9533      9534
      9529      9528      9533      9535      9529      9528      9533      9536
      9529      9528      9537      9538      9529      9528      9537      9539
      9529      9528      9537      9540      9529      9528      9541      9542
      9529      9528      9541      9543      9529      9528      9541      9544
      9530      9529      9528      9533      9530      9529      9528      9537
      9530      9529      9528      9541      9531      9529      9528      9533
      9531      9529      9528      9537      9531      9529      9528      9541
      9532      9529      9528      9533      9532      9529      9528      9537
      9532      9529      9528      9541      9533      9528      9537      9538
      9533      9528      9537      9539      9533      9528      9537      9540
      9533      9528      9541      9542      9533      9528      9541      9543
      9533      9528      9541      9544      9534      9533      9528      9537
      9534      9533      9528      9541      9535      9533      9528      9537
      9535      9533      9528      9541      9536      9533      9528      9537
      9536      9533      9528      9541      9537      9528      9541      9542
      9537      9528      9541      9543      9537      9528      9541      9544
      9538      9537      9528      9541      9539      9537      9528      9541
      9540      9537      9528      9541      9541      9544      9551      9547
      9542      9541      9544      9545      9542      9541      9544      9546
      9542      9541      9544      9551      9543      9541      9544      9545
      9543      9541      9544      9546      9543      9541      9544      9551
      9544      9551      9547      9548      9544      9551      9547      9549
      9544      9551      9547      9550      9545      9544      9551      9547
      9546      9544      9551      9547      9547      9550      9552      9553
      9547      9550      9552      9554      9547      9550      9552      9557
      9548      9547      9550      9552      9549      9547      9550      9552
      9550      9552      9557      9555      9550      9552      9557      9558
      9550      9552      9557      9559      9551      9547      9550      9552
      9552      9557      9555      9556      9552      9557      9555      9607
      9552      9557      9559      9560      9552      9557      9559      9561
      9552      9557      9559      9563      9553      9552      9557      9555
      9553      9552      9557      9558      9553      9552      9557      9559
      9554      9552      9557      9555      9554      9552      9557      9558
      9554      9552      9557      9559      9555      9557      9559      9560
      9555      9557      9559      9561      9555      9557      9559      9563
      9555      9607      9609      9610      9555      9607      9609      9611
      9555      9607      9609      9612      9556      9555      9557      9558
      9556      9555      9557      9559      9556      9555      9607      9608
      9556      9555      9607      9609      9557      9555      9607      9608
      9557      9555      9607      9609      9557      9559      9561      9562
      9557      9559      9563      9564      9557      9559      9563      9565
      9558      9557      9555      9607      9558      9557      9559      9560
      9558      9557      9559      9561      9558      9557      9559      9563
      9559      9557      9555      9607      9559      9563      9565      9566
      9559      9563      9565      9567      9560      9559      9561      9562
      9560      9559      9563      9564      9560      9559      9563      9565
      9561      9559      9563      9564      9561      9559      9563      9565
      9562      9561      9559      9563      9563      9565      9567      9568
      9563      9565      9567      9569      9563      9565      9567      9570
      9564      9563      9565      9566      9564      9563      9565      9567
      9565      9567      9570      9571      9565      9567      9570      9572
      9565      9567      9570      9573      9566      9565      9567      9568
      9566      9565      9567      9569      9566      9565      9567      9570
      9567      9570      9573      9574      9567      9570      9573      9575
      9567      9570      9573      9576      9568      9567      9570      9571
      9568      9567      9570      9572      9568      9567      9570      9573
      9569      9567      9570      9571      9569      9567      9570      9572
      9569      9567      9570      9573      9570      9573      9576      9577
      9570      9573      9576      9578      9570      9573      9576      9579
      9571      9570      9573      9574      9571      9570      9573      9575
      9571      9570      9573      9576      9572      9570      9573      9574
      9572      9570      9573      9575      9572      9570      9573      9576
      9573      9576      9579      9580      9573      9576      9579      9581
      9573      9576      9579      9582      9574      9573      9576      9577
      9574      9573      9576      9578      9574      9573      9576      9579
      9575      9573      9576      9577      9575      9573      9576      9578
      9575      9573      9576      9579      9576      9579      9582      9583
      9576      9579      9582      9584      9576      9579      9582      9585
      9577      9576      9579      9580      9577      9576      9579      9581
      9577      9576      9579      9582      9578      9576      9579      9580
      9578      9576      9579      9581      9578      9576      9579      9582
      9579      9582      9585      9586      9579      9582      9585      9587
      9579      9582      9585      9588      9580      9579      9582      9583
      9580      9579      9582      9584      9580      9579      9582      9585
      9581      9579      9582      9583      9581      9579      9582      9584
      9581      9579      9582      9585      9582      9585      9588      9589
      9582      9585      9588      9590      9582      9585      9588      9591
      9583      9582      9585      9586      9583      9582      9585      9587
      9583      9582      9585      9588      9584      9582      9585      9586
      9584      9582      9585      9587      9584      9582      9585      9588
      9585      9588      9591      9592      9585      9588      9591      9593
      9585      9588      9591      9594      9586      9585      9588      9589
      9586      9585      9588      9590      9586      9585      9588      9591
      9587      9585      9588      9589      9587      9585      9588      9590
      9587      9585      9588      9591      9588      9591      9594      9595
      9588      9591      9594      9596      9588      9591      9594      9597
      9589      9588      9591      9592      9589      9588      9591      9593
      9589      9588      9591      9594      9590      9588      9591      9592
      9590      9588      9591      9593      9590      9588      9591      9594
      9591      9594      9597      9598      9591      9594      9597      9599
      9591      9594      9597      9600      9592      9591      9594      9595
      9592      9591      9594      9596      9592      9591      9594      9597
      9593      9591      9594      9595      9593      9591      9594      9596
      9593      9591      9594      9597      9594      9597      9600      9601
      9594      9597      9600      9602      9594      9597      9600      9603
      9595      9594      9597      9598      9595      9594      9597      9599
      9595      9594      9597      9600      9596      9594      9597      9598
      9596      9594      9597      9599      9596      9594      9597      9600
      9597      9600      9603      9604      9597      9600      9603      9605
      9597      9600      9603      9606      9598      9597      9600      9601
      9598      9597      9600      9602      9598      9597      9600      9603
      9599      9597      9600      9601      9599      9597      9600      9602
      9599      9597      9600      9603      9601      9600      9603      9604
      9601      9600      9603      9605      9601      9600      9603      9606
      9602      9600      9603      9604      9602      9600      9603      9605
      9602      9600      9603      9606      9607      9609      9612      9613
      9607      9609      9612      9614      9607      9609      9612      9615
      9608      9607      9609      9610      9608      9607      9609      9611
      9608      9607      9609      9612      9609      9612      9615      9616
      9609      9612      9615      9617      9609      9612      9615      9618
      9610      9609      9612      9613      9610      9609      9612      9614
      9610      9609      9612      9615      9611      9609      9612      9613
      9611      9609      9612      9614      9611      9609      9612      9615
      9612      9615      9618      9619      9612      9615      9618      9620
      9612      9615      9618      9621      9613      9612      9615      9616
      9613      9612      9615      9617      9613      9612      9615      9618
      9614      9612      9615      9616      9614      9612      9615      9617
      9614      9612      9615      9618      9615      9618      9621      9622
      9615      9618      9621      9623      9615      9618      9621      9624
      9616      9615      9618      9619      9616      9615      9618      9620
      9616      9615      9618      9621      9617      9615      9618      9619
      9617      9615      9618      9620      9617      9615      9618      9621
      9618      9621      9624      9625      9618      9621      9624      9626
      9618      9621      9624      9627      9619      9618      9621      9622
      9619      9618      9621      9623      9619      9618      9621      9624
      9620      9618      9621      9622      9620      9618      9621      9623
      9620      9618      9621      9624      9621      9624      9627      9628
      9621      9624      9627      9629      9621      9624      9627      9630
      9622      9621      9624      9625      9622      9621      9624      9626
      9622      9621      9624      9627      9623      9621      9624      9625
      9623      9621      9624      9626      9623      9621      9624      9627
      9624      9627      9630      9631      9624      9627      9630      9632
      9625      9624      9627      9628      9625      9624      9627      9629
      9625      9624      9627      9630      9626      9624      9627      9628
      9626      9624      9627      9629      9626      9624      9627      9630
      9627      9630      9632      9633      9627      9630      9632      9634
      9628      9627      9630      9631      9628      9627      9630      9632
      9629      9627      9630      9631      9629      9627      9630      9632
      9630      9632      9634      9635      9630      9632      9634      9636
      9630      9632      9634      9637      9631      9630      9632      9633
      9631      9630      9632      9634      9632      9634      9637      9638
      9632      9634      9637      9639      9632      9634      9637      9640
      9633      9632      9634      9635      9633      9632      9634      9636
      9633      9632      9634      9637      9634      9637      9640      9641
      9634      9637      9640      9642      9634      9637      9640      9643
      9635      9634      9637      9638      9635      9634      9637      9639
      9635      9634      9637      9640      9636      9634      9637      9638
      9636      9634      9637      9639      9636      9634      9637      9640
      9637      9640      9643      9644      9637      9640      9643      9645
      9637      9640      9643      9646      9638      9637      9640      9641
      9638      9637      9640      9642      9638      9637      9640      9643
      9639      9637      9640      9641      9639      9637      9640      9642
      9639      9637      9640      9643      9640      9643      9646      9647
      9640      9643      9646      9648      9640      9643      9646      9649
      9641      9640      9643      9644      9641      9640      9643      9645
      9641      9640      9643      9646      9642      9640      9643      9644
      9642      9640      9643      9645      9642      9640      9643      9646
      9643      9646      9649      9650      9643      9646      9649      9651
      9643      9646      9649      9652      9644      9643      9646      9647
      9644      9643      9646      9648      9644      9643      9646      9649
      9645      9643      9646      9647      9645      9643      9646      9648
      9645      9643      9646      9649      9646      9649      9652      9653
      9646      9649      9652      9654      9646      9649      9652      9655
      9647      9646      9649      9650      9647      9646      9649      9651
      9647      9646      9649      9652      9648      9646      9649      9650
      9648      9646      9649      9651      9648      9646      9649      9652
      9649      9652      9655      9656      9649      9652      9655      9657
      9649      9652      9655      9658      9650      9649      9652      9653
      9650      9649      9652      9654      9650      9649      9652      9655
      9651      9649      9652      9653      9651      9649      9652      9654
      9651      9649      9652      9655      9653      9652      9655      9656
      9653      9652      9655      9657      9653      9652      9655      9658
      9654      9652      9655      9656      9654      9652      9655      9657
      9654      9652      9655      9658      9659      9663      9665      9666
      9659      9663      9665      9667      9659      9663      9668      9669
      9659      9663      9668      9670      9659      9663      9668      9674
      9660      9659      9663      9664      9660      9659      9663      9665
      9660      9659      9663      9668      9661      9659      9663      9664
      9661      9659      9663      9665      9661      9659      9663      9668
      9662      9659      9663      9664      9662      9659      9663      9665
      9662      9659      9663      9668      9663      9668      9674      9671
      9664      9663      9665      9666      9664      9663      9665      9667
      9664      9663      9668      9669      9664      9663      9668      9670
      9664      9663      9668      9674      9665      9663      9668      9669
      9665      9663      9668      9670      9665      9663      9668      9674
      9666      9665      9663      9668      9667      9665      9663      9668
      9668      9674      9671      9672      9668      9674      9671      9673
      9668      9674      9671      9675      9669      9668      9674      9671
      9670      9668      9674      9671      9671      9675      9676      9677
      9671      9675      9676      9678      9671      9675      9676      9679
      9672      9671      9675      9676      9673      9671      9675      9676
      9674      9671      9675      9676      9675      9676      9679      9680
      9675      9676      9679      9681      9675      9676      9679      9687
      9676      9679      9681      9682      9676      9679      9687      9688
      9676      9679      9687      9689      9676      9679      9687      9690
      9677      9676      9679      9680      9677      9676      9679      9681
      9677      9676      9679      9687      9678      9676      9679      9680
      9678      9676      9679      9681      9678      9676      9679      9687
      9679      9681      9682      9683      9679      9681      9682      9684
      9679      9687      9690      9691      9680      9679      9681      9682
      9680      9679      9687      9688      9680      9679      9687      9689
      9680      9679      9687      9690      9681      9679      9687      9688
      9681      9679      9687      9689      9681      9679      9687      9690
      9681      9682      9684      9685      9681      9682      9684      9686
      9681      9682      9684      9696      9682      9681      9679      9687
      9682      9684      9696      9697      9682      9684      9696      9698
      9682      9684      9696      9699      9683      9682      9684      9685
      9683      9682      9684      9686      9683      9682      9684      9696
      9684      9696      9699      9700      9684      9696      9699      9701
      9684      9696      9699      9702      9685      9684      9696      9697
      9685      9684      9696      9698      9685      9684      9696      9699
      9686      9684      9696      9697      9686      9684      9696      9698
      9686      9684      9696      9699      9687      9690      9691      9692
      9687      9690      9691      9693      9688      9687      9690      9691
      9689      9687      9690      9691      9690      9691      9693      9694
      9690      9691      9693      9695      9690      9691      9693      9743
      9691      9693      9743      9744      9691      9693      9743      9745
      9691      9693      9743      9746      9692      9691      9693      9694
      9692      9691      9693      9695      9692      9691      9693      9743
      9693      9743      9746      9747      9693      9743      9746      9748
      9693      9743      9746      9749      9694      9693      9743      9744
      9694      9693      9743      9745      9694      9693      9743      9746
      9695      9693      9743      9744      9695      9693      9743      9745
      9695      9693      9743      9746      9696      9699      9702      9703
      9696      9699      9702      9704      9697      9696      9699      9700
      9697      9696      9699      9701      9697      9696      9699      9702
      9698      9696      9699      9700      9698      9696      9699      9701
      9698      9696      9699      9702      9699      9702      9704      9705
      9699      9702      9704      9706      9700      9699      9702      9703
      9700      9699      9702      9704      9701      9699      9702      9703
      9701      9699      9702      9704      9702      9704      9706      9707
      9702      9704      9706      9708      9702      9704      9706      9709
      9703      9702      9704      9705      9703      9702      9704      9706
      9704      9706      9709      9710      9704      9706      9709      9711
      9705      9704      9706      9707      9705      9704      9706      9708
      9705      9704      9706      9709      9706      9709      9711      9712
      9706      9709      9711      9713      9707      9706      9709      9710
      9707      9706      9709      9711      9708      9706      9709      9710
      9708      9706      9709      9711      9709      9711      9713      9714
      9709      9711      9713      9715      9709      9711      9713      9716
      9710      9709      9711      9712      9710      9709      9711      9713
      9711      9713      9716      9717      9711      9713      9716      9718
      9712      9711      9713      9714      9712      9711      9713      9715
      9712      9711      9713      9716      9713      9716      9718      9719
      9713      9716      9718      9720      9714      9713      9716      9717
      9714      9713      9716      9718      9715      9713      9716      9717
      9715      9713      9716      9718      9716      9718      9720      9721
      9716      9718      9720      9722      9716      9718      9720      9723
      9717      9716      9718      9719      9717      9716      9718      9720
      9718      9720      9723      9724      9718      9720      9723      9725
      9719      9718      9720      9721      9719      9718      9720      9722
      9719      9718      9720      9723      9720      9723      9725      9726
      9720      9723      9725      9727      9721      9720      9723      9724
      9721      9720      9723      9725      9722      9720      9723      9724
      9722      9720      9723      9725      9723      9725      9727      9728
      9723      9725      9727      9729      9723      9725      9727      9730
      9724      9723      9725      9726      9724      9723      9725      9727
      9725      9727      9730      9731      9725      9727      9730      9732
      9725      9727      9730      9733      9726      9725      9727      9728
      9726      9725      9727      9729      9726      9725      9727      9730
      9727      9730      9733      9734      9727      9730      9733      9735
      9727      9730      9733      9736      9728      9727      9730      9731
      9728      9727      9730      9732      9728      9727      9730      9733
      9729      9727      9730      9731      9729      9727      9730      9732
      9729      9727      9730      9733      9730      9733      9736      9737
      9730      9733      9736      9738      9730      9733      9736      9739
      9731      9730      9733      9734      9731      9730      9733      9735
      9731      9730      9733      9736      9732      9730      9733      9734
      9732      9730      9733      9735      9732      9730      9733      9736
      9733      9736      9739      9740      9733      9736      9739      9741
      9733      9736      9739      9742      9734      9733      9736      9737
      9734      9733      9736      9738      9734      9733      9736      9739
      9735      9733      9736      9737      9735      9733      9736      9738
      9735      9733      9736      9739      9737      9736      9739      9740
      9737      9736      9739      9741      9737      9736      9739      9742
      9738      9736      9739      9740      9738      9736      9739      9741
      9738      9736      9739      9742      9743      9746      9749      9750
      9743      9746      9749      9751      9743      9746      9749      9752
      9744      9743      9746      9747      9744      9743      9746      9748
      9744      9743      9746      9749      9745      9743      9746      9747
      9745      9743      9746      9748      9745      9743      9746      9749
      9746      9749      9752      9753      9746      9749      9752      9754
      9746      9749      9752      9755      9747      9746      9749      9750
      9747      9746      9749      9751      9747      9746      9749      9752
      9748      9746      9749      9750      9748      9746      9749      9751
      9748      9746      9749      9752      9749      9752      9755      9756
      9749      9752      9755      9757      9749      9752      9755      9758
      9750      9749      9752      9753      9750      9749      9752      9754
      9750      9749      9752      9755      9751      9749      9752      9753
      9751      9749      9752      9754      9751      9749      9752      9755
      9752      9755      9758      9759      9752      9755      9758      9760
      9752      9755      9758      9761      9753      9752      9755      9756
      9753      9752      9755      9757      9753      9752      9755      9758
      9754      9752      9755      9756      9754      9752      9755      9757
      9754      9752      9755      9758      9755      9758      9761      9762
      9755      9758      9761      9763      9755      9758      9761      9764
      9756      9755      9758      9759      9756      9755      9758      9760
      9756      9755      9758      9761      9757      9755      9758      9759
      9757      9755      9758      9760      9757      9755      9758      9761
      9758      9761      9764      9765      9758      9761      9764      9766
      9758      9761      9764      9767      9759      9758      9761      9762
      9759      9758      9761      9763      9759      9758      9761      9764
      9760      9758      9761      9762      9760      9758      9761      9763
      9760      9758      9761      9764      9761      9764      9767      9768
      9761      9764      9767      9769      9761      9764      9767      9770
      9762      9761      9764      9765      9762      9761      9764      9766
      9762      9761      9764      9767      9763      9761      9764      9765
      9763      9761      9764      9766      9763      9761      9764      9767
      9764      9767      9770      9771      9764      9767      9770      9772
      9764      9767      9770      9773      9765      9764      9767      9768
      9765      9764      9767      9769      9765      9764      9767      9770
      9766      9764      9767      9768      9766      9764      9767      9769
      9766      9764      9767      9770      9767      9770      9773      9774
      9767      9770      9773      9775      9767      9770      9773      9776
      9768      9767      9770      9771      9768      9767      9770      9772
      9768      9767      9770      9773      9769      9767      9770      9771
      9769      9767      9770      9772      9769      9767      9770      9773
      9770      9773      9776      9777      9770      9773      9776      9778
      9770      9773      9776      9779      9771      9770      9773      9774
      9771      9770      9773      9775      9771      9770      9773      9776
      9772      9770      9773      9774      9772      9770      9773      9775
      9772      9770      9773      9776      9773      9776      9779      9780
      9773      9776      9779      9781      9773      9776      9779      9782
      9774      9773      9776      9777      9774      9773      9776      9778
      9774      9773      9776      9779      9775      9773      9776      9777
      9775      9773      9776      9778      9775      9773      9776      9779
      9776      9779      9782      9783      9776      9779      9782      9784
      9776      9779      9782      9785      9777      9776      9779      9780
      9777      9776      9779      9781      9777      9776      9779      9782
      9778      9776      9779      9780      9778      9776      9779      9781
      9778      9776      9779      9782      9779      9782      9785      9786
      9779      9782      9785      9787      9779      9782      9785      9788
      9780      9779      9782      9783      9780      9779      9782      9784
      9780      9779      9782      9785      9781      9779      9782      9783
      9781      9779      9782      9784      9781      9779      9782      9785
      9782      9785      9788      9789      9782      9785      9788      9790
      9782      9785      9788      9791      9783      9782      9785      9786
      9783      9782      9785      9787      9783      9782      9785      9788
      9784      9782      9785      9786      9784      9782      9785      9787
      9784      9782      9785      9788      9786      9785      9788      9789
      9786      9785      9788      9790      9786      9785      9788      9791
      9787      9785      9788      9789      9787      9785      9788      9790
      9787      9785      9788      9791      9792      9793      9808      9809
      9792      9793      9808      9810      9792      9793      9808      9814
      9793      9792      9796      9797      9793      9792      9796      9798
      9793      9792      9796      9799      9793      9792      9800      9801
      9793      9792      9800      9802      9793      9792      9800      9803
      9793      9792      9804      9805      9793      9792      9804      9806
      9793      9792      9804      9807      9793      9808      9814      9811
      9794      9793      9792      9796      9794      9793      9792      9800
      9794      9793      9792      9804      9794      9793      9808      9809
      9794      9793      9808      9810      9794      9793      9808      9814
      9795      9793      9792      9796      9795      9793      9792      9800
      9795      9793      9792      9804      9795      9793      9808      9809
      9795      9793      9808      9810      9795      9793      9808      9814
      9796      9792      9793      9808      9796      9792      9800      9801
      9796      9792      9800      9802      9796      9792      9800      9803
      9796      9792      9804      9805      9796      9792      9804      9806
      9796      9792      9804      9807      9797      9796      9792      9800
      9797      9796      9792      9804      9798      9796      9792      9800
      9798      9796      9792      9804      9799      9796      9792      9800
      9799      9796      9792      9804      9800      9792      9793      9808
      9800      9792      9804      9805      9800      9792      9804      9806
      9800      9792      9804      9807      9801      9800      9792      9804
      9802      9800      9792      9804      9803      9800      9792      9804
      9804      9792      9793      9808      9808      9814      9811      9812
      9808      9814      9811      9813      9808      9814      9811      9815
      9809      9808      9814      9811      9810      9808      9814      9811
      9811      9815      9816      9817      9811      9815      9816      9818
      9811      9815      9816      9819      9812      9811      9815      9816
      9813      9811      9815      9816      9814      9811      9815      9816
      9815      9816      9819      9820      9815      9816      9819      9821
      9815      9816      9819      9827      9816      9819      9821      9822
      9816      9819      9827      9828      9816      9819      9827      9829
      9816      9819      9827      9830      9817      9816      9819      9820
      9817      9816      9819      9821      9817      9816      9819      9827
      9818      9816      9819      9820      9818      9816      9819      9821
      9818      9816      9819      9827      9819      9821      9822      9823
      9819      9821      9822      9824      9819      9827      9830      9831
      9820      9819      9821      9822      9820      9819      9827      9828
      9820      9819      9827      9829      9820      9819      9827      9830
      9821      9819      9827      9828      9821      9819      9827      9829
      9821      9819      9827      9830      9821      9822      9824      9825
      9821      9822      9824      9826      9821      9822      9824      9836
      9822      9821      9819      9827      9822      9824      9836      9837
      9822      9824      9836      9838      9822      9824      9836      9839
      9823      9822      9824      9825      9823      9822      9824      9826
      9823      9822      9824      9836      9824      9836      9839      9840
      9824      9836      9839      9841      9824      9836      9839      9842
      9825      9824      9836      9837      9825      9824      9836      9838
      9825      9824      9836      9839      9826      9824      9836      9837
      9826      9824      9836      9838      9826      9824      9836      9839
      9827      9830      9831      9832      9827      9830      9831      9833
      9828      9827      9830      9831      9829      9827      9830      9831
      9830      9831      9833      9834      9830      9831      9833      9835
      9830      9831      9833      9883      9831      9833      9883      9884
      9831      9833      9883      9885      9831      9833      9883      9886
      9832      9831      9833      9834      9832      9831      9833      9835
      9832      9831      9833      9883      9833      9883      9886      9887
      9833      9883      9886      9888      9833      9883      9886      9889
      9834      9833      9883      9884      9834      9833      9883      9885
      9834      9833      9883      9886      9835      9833      9883      9884
      9835      9833      9883      9885      9835      9833      9883      9886
      9836      9839      9842      9843      9836      9839      9842      9844
      9837      9836      9839      9840      9837      9836      9839      9841
      9837      9836      9839      9842      9838      9836      9839      9840
      9838      9836      9839      9841      9838      9836      9839      9842
      9839      9842      9844      9845      9839      9842      9844      9846
      9840      9839      9842      9843      9840      9839      9842      9844
      9841      9839      9842      9843      9841      9839      9842      9844
      9842      9844      9846      9847      9842      9844      9846      9848
      9842      9844      9846      9849      9843      9842      9844      9845
      9843      9842      9844      9846      9844      9846      9849      9850
      9844      9846      9849      9851      9845      9844      9846      9847
      9845      9844      9846      9848      9845      9844      9846      9849
      9846      9849      9851      9852      9846      9849      9851      9853
      9847      9846      9849      9850      9847      9846      9849      9851
      9848      9846      9849      9850      9848      9846      9849      9851
      9849      9851      9853      9854      9849      9851      9853      9855
      9849      9851      9853      9856      9850      9849      9851      9852
      9850      9849      9851      9853      9851      9853      9856      9857
      9851      9853      9856      9858      9852      9851      9853      9854
      9852      9851      9853      9855      9852      9851      9853      9856
      9853      9856      9858      9859      9853      9856      9858      9860
      9854      9853      9856      9857      9854      9853      9856      9858
      9855      9853      9856      9857      9855      9853      9856      9858
      9856      9858      9860      9861      9856      9858      9860      9862
      9856      9858      9860      9863      9857      9856      9858      9859
      9857      9856      9858      9860      9858      9860      9863      9864
      9858      9860      9863      9865      9859      9858      9860      9861
      9859      9858      9860      9862      9859      9858      9860      9863
      9860      9863      9865      9866      9860      9863      9865      9867
      9861      9860      9863      9864      9861      9860      9863      9865
      9862      9860      9863      9864      9862      9860      9863      9865
      9863      9865      9867      9868      9863      9865      9867      9869
      9863      9865      9867      9870      9864      9863      9865      9866
      9864      9863      9865      9867      9865      9867      9870      9871
      9865      9867      9870      9872      9865      9867      9870      9873
      9866      9865      9867      9868      9866      9865      9867      9869
      9866      9865      9867      9870      9867      9870      9873      9874
      9867      9870      9873      9875      9867      9870      9873      9876
      9868      9867      9870      9871      9868      9867      9870      9872
      9868      9867      9870      9873      9869      9867      9870      9871
      9869      9867      9870      9872      9869      9867      9870      9873
      9870      9873      9876      9877      9870      9873      9876      9878
      9870      9873      9876      9879      9871      9870      9873      9874
      9871      9870      9873      9875      9871      9870      9873      9876
      9872      9870      9873      9874      9872      9870      9873      9875
      9872      9870      9873      9876      9873      9876      9879      9880
      9873      9876      9879      9881      9873      9876      9879      9882
      9874      9873      9876      9877      9874      9873      9876      9878
      9874      9873      9876      9879      9875      9873      9876      9877
      9875      9873      9876      9878      9875      9873      9876      9879
      9877      9876      9879      9880      9877      9876      9879      9881
      9877      9876      9879      9882      9878      9876      9879      9880
      9878      9876      9879      9881      9878      9876      9879      9882
      9883      9886      9889      9890      9883      9886      9889      9891
      9883      9886      9889      9892      9884      9883      9886      9887
      9884      9883      9886      9888      9884      9883      9886      9889
      9885      9883      9886      9887      9885      9883      9886      9888
      9885      9883      9886      9889      9886      9889      9892      9893
      9886      9889      9892      9894      9886      9889      9892      9895
      9887      9886      9889      9890      9887      9886      9889      9891
      9887      9886      9889      9892      9888      9886      9889      9890
      9888      9886      9889      9891      9888      9886      9889      9892
      9889      9892      9895      9896      9889      9892      9895      9897
      9889      9892      9895      9898      9890      9889      9892      9893
      9890      9889      9892      9894      9890      9889      9892      9895
      9891      9889      9892      9893      9891      9889      9892      9894
      9891      9889      9892      9895      9892      9895      9898      9899
      9892      9895      9898      9900      9892      9895      9898      9901
      9893      9892      9895      9896      9893      9892      9895      9897
      9893      9892      9895      9898      9894      9892      9895      9896
      9894      9892      9895      9897      9894      9892      9895      9898
      9895      9898      9901      9902      9895      9898      9901      9903
      9895      9898      9901      9904      9896      9895      9898      9899
      9896      9895      9898      9900      9896      9895      9898      9901
      9897      9895      9898      9899      9897      9895      9898      9900
      9897      9895      9898      9901      9898      9901      9904      9905
      9898      9901      9904      9906      9898      9901      9904      9907
      9899      9898      9901      9902      9899      9898      9901      9903
      9899      9898      9901      9904      9900      9898      9901      9902
      9900      9898      9901      9903      9900      9898      9901      9904
      9901      9904      9907      9908      9901      9904      9907      9909
      9901      9904      9907      9910      9902      9901      9904      9905
      9902      9901      9904      9906      9902      9901      9904      9907
      9903      9901      9904      9905      9903      9901      9904      9906
      9903      9901      9904      9907      9904      9907      9910      9911
      9904      9907      9910      9912      9904      9907      9910      9913
      9905      9904      9907      9908      9905      9904      9907      9909
      9905      9904      9907      9910      9906      9904      9907      9908
      9906      9904      9907      9909      9906      9904      9907      9910
      9907      9910      9913      9914      9907      9910      9913      9915
      9907      9910      9913      9916      9908      9907      9910      9911
      9908      9907      9910      9912      9908      9907      9910      9913
      9909      9907      9910      9911      9909      9907      9910      9912
      9909      9907      9910      9913      9910      9913      9916      9917
      9910      9913      9916      9918      9910      9913      9916      9919
      9911      9910      9913      9914      9911      9910      9913      9915
      9911      9910      9913      9916      9912      9910      9913      9914
      9912      9910      9913      9915      9912      9910      9913      9916
      9913      9916      9919      9920      9913      9916      9919      9921
      9913      9916      9919      9922      9914      9913      9916      9917
      9914      9913      9916      9918      9914      9913      9916      9919
      9915      9913      9916      9917      9915      9913      9916      9918
      9915      9913      9916      9919      9916      9919      9922      9923
      9916      9919      9922      9924      9916      9919      9922      9925
      9917      9916      9919      9920      9917      9916      9919      9921
      9917      9916      9919      9922      9918      9916      9919      9920
      9918      9916      9919      9921      9918      9916      9919      9922
      9919      9922      9925      9926      9919      9922      9925      9927
      9919      9922      9925      9928      9920      9919      9922      9923
      9920      9919      9922      9924      9920      9919      9922      9925
      9921      9919      9922      9923      9921      9919      9922      9924
      9921      9919      9922      9925      9922      9925      9928      9929
      9922      9925      9928      9930      9922      9925      9928      9931
      9923      9922      9925      9926      9923      9922      9925      9927
      9923      9922      9925      9928      9924      9922      9925      9926
      9924      9922      9925      9927      9924      9922      9925      9928
      9926      9925      9928      9929      9926      9925      9928      9930
      9926      9925      9928      9931      9927      9925      9928      9929
      9927      9925      9928      9930      9927      9925      9928      9931
      9932      9936      9939      9940      9932      9936      9939      9970
      9932      9978      9975      9970      9932      9978      9975      9976
      9932      9978      9975      9977      9933      9932      9934      9935
      9933      9932      9936      9937      9933      9932      9936      9938
      9933      9932      9936      9939      9933      9932      9978      9975
      9933      9932      9978      9979      9933      9932      9978      9980
      9934      9932      9936      9937      9934      9932      9936      9938
      9934      9932      9936      9939      9934      9932      9978      9975
      9934      9932      9978      9979      9934      9932      9978      9980
      9935      9934      9932      9936      9935      9934      9932      9978
      9936      9932      9978      9975      9936      9932      9978      9979
      9936      9932      9978      9980      9936      9939      9940      9941
      9936      9939      9940      9942      9936      9939      9970      9968
      9936      9939      9970      9971      9936      9939      9970      9975
      9937      9936      9932      9978      9937      9936      9939      9940
      9937      9936      9939      9970      9938      9936      9932      9978
      9938      9936      9939      9940      9938      9936      9939      9970
      9939      9936      9932      9978      9939      9940      9942      9943
      9939      9940      9942      9944      9939      9940      9942      9945
      9939      9970      9968      9945      9939      9970      9968      9965
      9939      9970      9968      9969      9939      9970      9971      9972
      9939      9970      9971      9973      9939      9970      9971      9974
      9939      9970      9975      9976      9939      9970      9975      9977
      9939      9970      9975      9978      9940      9939      9970      9968
      9940      9939      9970      9971      9940      9939      9970      9975
      9940      9942      9945      9946      9940      9942      9945      9947
      9940      9942      9945      9968      9941      9940      9939      9970
      9941      9940      9942      9943      9941      9940      9942      9944
      9941      9940      9942      9945      9942      9940      9939      9970
      9942      9945      9947      9948      9942      9945      9947      9949
      9942      9945      9947      9957      9942      9945      9968      9965
      9942      9945      9968      9969      9942      9945      9968      9970
      9943      9942      9945      9946      9943      9942      9945      9947
      9943      9942      9945      9968      9944      9942      9945      9946
      9944      9942      9945      9947      9944      9942      9945      9968
      9945      9947      9949      9950      9945      9947      9949      9951
      9945      9947      9949      9952      9945      9947      9957      9955
      9945      9947      9957      9958      9945      9947      9957      9962
      9945      9968      9965      9962      9945      9968      9965      9966
      9945      9968      9965      9967      9945      9968      9970      9971
      9945      9968      9970      9975      9946      9945      9947      9948
      9946      9945      9947      9949      9946      9945      9947      9957
      9946      9945      9968      9965      9946      9945      9968      9969
      9946      9945      9968      9970      9947      9945      9968      9965
      9947      9945      9968      9969      9947      9945      9968      9970
      9947      9949      9952      9953      9947      9949      9952      9954
      9947      9949      9952      9955      9947      9957      9955      9952
      9947      9957      9955      9956      9947      9957      9955      9981
      9947      9957      9958      9959      9947      9957      9958      9960
      9947      9957      9958      9961      9947      9957      9962      9963
      9947      9957      9962      9964      9947      9957      9962      9965
      9948      9947      9945      9968      9948      9947      9949      9950
      9948      9947      9949      9951      9948      9947      9949      9952
      9948      9947      9957      9955      9948      9947      9957      9958
      9948      9947      9957      9962      9949      9947      9945      9968
      9949      9947      9957      9955      9949      9947      9957      9958
      9949      9947      9957      9962      9949      9952      9955      9956
      9949      9952      9955      9957      9949      9952      9955      9981
      9950      9949      9947      9957      9950      9949      9952      9953
      9950      9949      9952      9954      9950      9949      9952      9955
      9951      9949      9947      9957      9951      9949      9952      9953
      9951      9949      9952      9954      9951      9949      9952      9955
      9952      9949      9947      9957      9952      9955      9957      9958
      9952      9955      9957      9962      9952      9955      9981      9982
      9952      9955      9981      9983      9952      9955      9981      9987
      9953      9952      9955      9956      9953      9952      9955      9957
      9953      9952      9955      9981      9954      9952      9955      9956
      9954      9952      9955      9957      9954      9952      9955      9981
      9955      9957      9958      9959      9955      9957      9958      9960
      9955      9957      9958      9961      9955      9957      9962      9963
      9955      9957      9962      9964      9955      9957      9962      9965
      9955      9981      9983      9984      9955      9981      9983      9985
      9955      9981      9983      9986      9955      9981      9987      9988
      9955      9981      9987      9989      9955      9981      9987      9990
      9956      9955      9957      9958      9956      9955      9957      9962
      9956      9955      9981      9982      9956      9955      9981      9983
      9956      9955      9981      9987      9957      9947      9945      9968
      9957      9955      9981      9982      9957      9955      9981      9983
      9957      9955      9981      9987      9957      9962      9965      9966
      9957      9962      9965      9967      9957      9962      9965      9968
      9958      9957      9955      9981      9958      9957      9962      9963
      9958      9957      9962      9964      9958      9957      9962      9965
      9959      9958      9957      9962      9960      9958      9957      9962
      9961      9958      9957      9962      9962      9957      9955      9981
      9962      9965      9968      9969      9962      9965      9968      9970
      9963      9962      9965      9966      9963      9962      9965      9967
      9963      9962      9965      9968      9964      9962      9965      9966
      9964      9962      9965      9967      9964      9962      9965      9968
      9965      9968      9970      9971      9965      9968      9970      9975
      9966      9965      9968      9969      9966      9965      9968      9970
      9967      9965      9968      9969      9967      9965      9968      9970
      9968      9970      9971      9972      9968      9970      9971      9973
      9968      9970      9971      9974      9968      9970      9975      9976
      9968      9970      9975      9977      9968      9970      9975      9978
      9969      9968      9970      9971      9969      9968      9970      9975
      9970      9975      9978      9979      9970      9975      9978      9980
      9971      9970      9975      9976      9971      9970      9975      9977
      9971      9970      9975      9978      9972      9971      9970      9975
      9973      9971      9970      9975      9974      9971      9970      9975
      9976      9975      9978      9979      9976      9975      9978      9980
      9977      9975      9978      9979      9977      9975      9978      9980
      9981      9987      9990      9991      9981      9987      9990      9992
      9981      9987      9990      9993      9982      9981      9983      9984
      9982      9981      9983      9985      9982      9981      9983      9986
      9982      9981      9987      9988      9982      9981      9987      9989
      9982      9981      9987      9990      9983      9981      9987      9988
      9983      9981      9987      9989      9983      9981      9987      9990
      9984      9983      9981      9987      9985      9983      9981      9987
      9986      9983      9981      9987      9987      9990      9993      9994
      9987      9990      9993      9995      9987      9990      9993      9996
      9988      9987      9990      9991      9988      9987      9990      9992
      9988      9987      9990      9993      9989      9987      9990      9991
      9989      9987      9990      9992      9989      9987      9990      9993
      9990      9993      9996      9997      9990      9993      9996      9998
      9990      9993      9996     10002      9991      9990      9993      9994
      9991      9990      9993      9995      9991      9990      9993      9996
      9992      9990      9993      9994      9992      9990      9993      9995
      9992      9990      9993      9996      9993      9996      9998      9999
      9993      9996      9998     10000      9993      9996      9998     10001
      9993      9996     10002     10003      9993      9996     10002     10004
      9993      9996     10002     10005      9994      9993      9996      9997
      9994      9993      9996      9998      9994      9993      9996     10002
      9995      9993      9996      9997      9995      9993      9996      9998
      9995      9993      9996     10002      9997      9996      9998      9999
      9997      9996      9998     10000      9997      9996      9998     10001
      9997      9996     10002     10003      9997      9996     10002     10004
      9997      9996     10002     10005      9998      9996     10002     10003
      9998      9996     10002     10004      9998      9996     10002     10005
      9999      9998      9996     10002     10000      9998      9996     10002
     10001      9998      9996     10002     10006     10019     10022     10023
     10006     10019     10022     10024     10006     10019     10022     10028
     10007     10006     10011     10012     10007     10006     10011     10013
     10007     10006     10011     10014     10007     10006     10015     10016
     10007     10006     10015     10017     10007     10006     10015     10018
     10007     10006     10019     10020     10007     10006     10019     10021
     10007     10006     10019     10022     10008     10007     10006     10011
     10008     10007     10006     10015     10008     10007     10006     10019
     10009     10007     10006     10011     10009     10007     10006     10015
     10009     10007     10006     10019     10010     10007     10006     10011
     10010     10007     10006     10015     10010     10007     10006     10019
     10011     10006     10015     10016     10011     10006     10015     10017
     10011     10006     10015     10018     10011     10006     10019     10020
     10011     10006     10019     10021     10011     10006     10019     10022
     10012     10011     10006     10015     10012     10011     10006     10019
     10013     10011     10006     10015     10013     10011     10006     10019
     10014     10011     10006     10015     10014     10011     10006     10019
     10015     10006     10019     10020     10015     10006     10019     10021
     10015     10006     10019     10022     10016     10015     10006     10019
     10017     10015     10006     10019     10018     10015     10006     10019
     10019     10022     10028     10025     10020     10019     10022     10023
     10020     10019     10022     10024     10020     10019     10022     10028
     10021     10019     10022     10023     10021     10019     10022     10024
     10021     10019     10022     10028     10022     10028     10025     10026
     10022     10028     10025     10027     10022     10028     10025     10029
     10023     10022     10028     10025     10024     10022     10028     10025
     10025     10029     10030     10031     10025     10029     10030     10032
     10025     10029     10030     10033     10026     10025     10029     10030
     10027     10025     10029     10030     10028     10025     10029     10030
     10029     10030     10033     10034     10029     10030     10033     10035
     10029     10030     10033     10041     10030     10033     10035     10036
     10030     10033     10041     10042     10030     10033     10041     10043
     10030     10033     10041     10044     10031     10030     10033     10034
     10031     10030     10033     10035     10031     10030     10033     10041
     10032     10030     10033     10034     10032     10030     10033     10035
     10032     10030     10033     10041     10033     10035     10036     10037
     10033     10035     10036     10038     10033     10041     10044     10045
     10034     10033     10035     10036     10034     10033     10041     10042
     10034     10033     10041     10043     10034     10033     10041     10044
     10035     10033     10041     10042     10035     10033     10041     10043
     10035     10033     10041     10044     10035     10036     10038     10039
     10035     10036     10038     10040     10035     10036     10038     10050
     10036     10035     10033     10041     10036     10038     10050     10051
     10036     10038     10050     10052     10036     10038     10050     10053
     10037     10036     10038     10039     10037     10036     10038     10040
     10037     10036     10038     10050     10038     10050     10053     10054
     10038     10050     10053     10055     10038     10050     10053     10056
     10039     10038     10050     10051     10039     10038     10050     10052
     10039     10038     10050     10053     10040     10038     10050     10051
     10040     10038     10050     10052     10040     10038     10050     10053
     10041     10044     10045     10046     10041     10044     10045     10047
     10042     10041     10044     10045     10043     10041     10044     10045
     10044     10045     10047     10048     10044     10045     10047     10049
     10044     10045     10047     10095     10045     10047     10095     10096
     10045     10047     10095     10097     10045     10047     10095     10098
     10046     10045     10047     10048     10046     10045     10047     10049
     10046     10045     10047     10095     10047     10095     10098     10099
     10047     10095     10098     10100     10047     10095     10098     10101
     10048     10047     10095     10096     10048     10047     10095     10097
     10048     10047     10095     10098     10049     10047     10095     10096
     10049     10047     10095     10097     10049     10047     10095     10098
     10050     10053     10056     10057     10050     10053     10056     10058
     10050     10053     10056     10059     10051     10050     10053     10054
     10051     10050     10053     10055     10051     10050     10053     10056
     10052     10050     10053     10054     10052     10050     10053     10055
     10052     10050     10053     10056     10053     10056     10059     10060
     10053     10056     10059     10061     10053     10056     10059     10062
     10054     10053     10056     10057     10054     10053     10056     10058
     10054     10053     10056     10059     10055     10053     10056     10057
     10055     10053     10056     10058     10055     10053     10056     10059
     10056     10059     10062     10063     10056     10059     10062     10064
     10056     10059     10062     10065     10057     10056     10059     10060
     10057     10056     10059     10061     10057     10056     10059     10062
     10058     10056     10059     10060     10058     10056     10059     10061
     10058     10056     10059     10062     10059     10062     10065     10066
     10059     10062     10065     10067     10059     10062     10065     10068
     10060     10059     10062     10063     10060     10059     10062     10064
     10060     10059     10062     10065     10061     10059     10062     10063
     10061     10059     10062     10064     10061     10059     10062     10065
     10062     10065     10068     10069     10062     10065     10068     10070
     10063     10062     10065     10066     10063     10062     10065     10067
     10063     10062     10065     10068     10064     10062     10065     10066
     10064     10062     10065     10067     10064     10062     10065     10068
     10065     10068     10070     10071     10065     10068     10070     10072
     10066     10065     10068     10069     10066     10065     10068     10070
     10067     10065     10068     10069     10067     10065     10068     10070
     10068     10070     10072     10073     10068     10070     10072     10074
     10068     10070     10072     10075     10069     10068     10070     10071
     10069     10068     10070     10072     10070     10072     10075     10076
     10070     10072     10075     10077     10071     10070     10072     10073
     10071     10070     10072     10074     10071     10070     10072     10075
     10072     10075     10077     10078     10072     10075     10077     10079
     10073     10072     10075     10076     10073     10072     10075     10077
     10074     10072     10075     10076     10074     10072     10075     10077
     10075     10077     10079     10080     10075     10077     10079     10081
     10075     10077     10079     10082     10076     10075     10077     10078
     10076     10075     10077     10079     10077     10079     10082     10083
     10077     10079     10082     10084     10077     10079     10082     10085
     10078     10077     10079     10080     10078     10077     10079     10081
     10078     10077     10079     10082     10079     10082     10085     10086
     10079     10082     10085     10087     10079     10082     10085     10088
     10080     10079     10082     10083     10080     10079     10082     10084
     10080     10079     10082     10085     10081     10079     10082     10083
     10081     10079     10082     10084     10081     10079     10082     10085
     10082     10085     10088     10089     10082     10085     10088     10090
     10082     10085     10088     10091     10083     10082     10085     10086
     10083     10082     10085     10087     10083     10082     10085     10088
     10084     10082     10085     10086     10084     10082     10085     10087
     10084     10082     10085     10088     10085     10088     10091     10092
     10085     10088     10091     10093     10085     10088     10091     10094
     10086     10085     10088     10089     10086     10085     10088     10090
     10086     10085     10088     10091     10087     10085     10088     10089
     10087     10085     10088     10090     10087     10085     10088     10091
     10089     10088     10091     10092     10089     10088     10091     10093
     10089     10088     10091     10094     10090     10088     10091     10092
     10090     10088     10091     10093     10090     10088     10091     10094
     10095     10098     10101     10102     10095     10098     10101     10103
     10095     10098     10101     10104     10096     10095     10098     10099
     10096     10095     10098     10100     10096     10095     10098     10101
     10097     10095     10098     10099     10097     10095     10098     10100
     10097     10095     10098     10101     10098     10101     10104     10105
     10098     10101     10104     10106     10098     10101     10104     10107
     10099     10098     10101     10102     10099     10098     10101     10103
     10099     10098     10101     10104     10100     10098     10101     10102
     10100     10098     10101     10103     10100     10098     10101     10104
     10101     10104     10107     10108     10101     10104     10107     10109
     10101     10104     10107     10110     10102     10101     10104     10105
     10102     10101     10104     10106     10102     10101     10104     10107
     10103     10101     10104     10105     10103     10101     10104     10106
     10103     10101     10104     10107     10104     10107     10110     10111
     10104     10107     10110     10112     10104     10107     10110     10113
     10105     10104     10107     10108     10105     10104     10107     10109
     10105     10104     10107     10110     10106     10104     10107     10108
     10106     10104     10107     10109     10106     10104     10107     10110
     10107     10110     10113     10114     10107     10110     10113     10115
     10107     10110     10113     10116     10108     10107     10110     10111
     10108     10107     10110     10112     10108     10107     10110     10113
     10109     10107     10110     10111     10109     10107     10110     10112
     10109     10107     10110     10113     10110     10113     10116     10117
     10110     10113     10116     10118     10110     10113     10116     10119
     10111     10110     10113     10114     10111     10110     10113     10115
     10111     10110     10113     10116     10112     10110     10113     10114
     10112     10110     10113     10115     10112     10110     10113     10116
     10113     10116     10119     10120     10113     10116     10119     10121
     10113     10116     10119     10122     10114     10113     10116     10117
     10114     10113     10116     10118     10114     10113     10116     10119
     10115     10113     10116     10117     10115     10113     10116     10118
     10115     10113     10116     10119     10116     10119     10122     10123
     10116     10119     10122     10124     10116     10119     10122     10125
     10117     10116     10119     10120     10117     10116     10119     10121
     10117     10116     10119     10122     10118     10116     10119     10120
     10118     10116     10119     10121     10118     10116     10119     10122
     10119     10122     10125     10126     10119     10122     10125     10127
     10119     10122     10125     10128     10120     10119     10122     10123
     10120     10119     10122     10124     10120     10119     10122     10125
     10121     10119     10122     10123     10121     10119     10122     10124
     10121     10119     10122     10125     10122     10125     10128     10129
     10122     10125     10128     10130     10122     10125     10128     10131
     10123     10122     10125     10126     10123     10122     10125     10127
     10123     10122     10125     10128     10124     10122     10125     10126
     10124     10122     10125     10127     10124     10122     10125     10128
     10125     10128     10131     10132     10125     10128     10131     10133
     10125     10128     10131     10134     10126     10125     10128     10129
     10126     10125     10128     10130     10126     10125     10128     10131
     10127     10125     10128     10129     10127     10125     10128     10130
     10127     10125     10128     10131     10128     10131     10134     10135
     10128     10131     10134     10136     10128     10131     10134     10137
     10129     10128     10131     10132     10129     10128     10131     10133
     10129     10128     10131     10134     10130     10128     10131     10132
     10130     10128     10131     10133     10130     10128     10131     10134
     10131     10134     10137     10138     10131     10134     10137     10139
     10131     10134     10137     10140     10132     10131     10134     10135
     10132     10131     10134     10136     10132     10131     10134     10137
     10133     10131     10134     10135     10133     10131     10134     10136
     10133     10131     10134     10137     10134     10137     10140     10141
     10134     10137     10140     10142     10134     10137     10140     10143
     10135     10134     10137     10138     10135     10134     10137     10139
     10135     10134     10137     10140     10136     10134     10137     10138
     10136     10134     10137     10139     10136     10134     10137     10140
     10138     10137     10140     10141     10138     10137     10140     10142
     10138     10137     10140     10143     10139     10137     10140     10141
     10139     10137     10140     10142     10139     10137     10140     10143
     10144     10157     10160     10161     10144     10157     10160     10162
     10144     10157     10160     10166     10145     10144     10149     10150
     10145     10144     10149     10151     10145     10144     10149     10152
     10145     10144     10153     10154     10145     10144     10153     10155
     10145     10144     10153     10156     10145     10144     10157     10158
     10145     10144     10157     10159     10145     10144     10157     10160
     10146     10145     10144     10149     10146     10145     10144     10153
     10146     10145     10144     10157     10147     10145     10144     10149
     10147     10145     10144     10153     10147     10145     10144     10157
     10148     10145     10144     10149     10148     10145     10144     10153
     10148     10145     10144     10157     10149     10144     10153     10154
     10149     10144     10153     10155     10149     10144     10153     10156
     10149     10144     10157     10158     10149     10144     10157     10159
     10149     10144     10157     10160     10150     10149     10144     10153
     10150     10149     10144     10157     10151     10149     10144     10153
     10151     10149     10144     10157     10152     10149     10144     10153
     10152     10149     10144     10157     10153     10144     10157     10158
     10153     10144     10157     10159     10153     10144     10157     10160
     10154     10153     10144     10157     10155     10153     10144     10157
     10156     10153     10144     10157     10157     10160     10166     10163
     10158     10157     10160     10161     10158     10157     10160     10162
     10158     10157     10160     10166     10159     10157     10160     10161
     10159     10157     10160     10162     10159     10157     10160     10166
     10160     10166     10163     10164     10160     10166     10163     10165
     10160     10166     10163     10167     10161     10160     10166     10163
     10162     10160     10166     10163     10163     10167     10168     10169
     10163     10167     10168     10170     10163     10167     10168     10171
     10164     10163     10167     10168     10165     10163     10167     10168
     10166     10163     10167     10168     10167     10168     10171     10172
     10167     10168     10171     10173     10167     10168     10171     10179
     10168     10171     10173     10174     10168     10171     10179     10180
     10168     10171     10179     10181     10168     10171     10179     10182
     10169     10168     10171     10172     10169     10168     10171     10173
     10169     10168     10171     10179     10170     10168     10171     10172
     10170     10168     10171     10173     10170     10168     10171     10179
     10171     10173     10174     10175     10171     10173     10174     10176
     10171     10179     10182     10183     10172     10171     10173     10174
     10172     10171     10179     10180     10172     10171     10179     10181
     10172     10171     10179     10182     10173     10171     10179     10180
     10173     10171     10179     10181     10173     10171     10179     10182
     10173     10174     10176     10177     10173     10174     10176     10178
     10173     10174     10176     10188     10174     10173     10171     10179
     10174     10176     10188     10189     10174     10176     10188     10190
     10174     10176     10188     10191     10175     10174     10176     10177
     10175     10174     10176     10178     10175     10174     10176     10188
     10176     10188     10191     10192     10176     10188     10191     10193
     10176     10188     10191     10194     10177     10176     10188     10189
     10177     10176     10188     10190     10177     10176     10188     10191
     10178     10176     10188     10189     10178     10176     10188     10190
     10178     10176     10188     10191     10179     10182     10183     10184
     10179     10182     10183     10185     10180     10179     10182     10183
     10181     10179     10182     10183     10182     10183     10185     10186
     10182     10183     10185     10187     10182     10183     10185     10233
     10183     10185     10233     10234     10183     10185     10233     10235
     10183     10185     10233     10236     10184     10183     10185     10186
     10184     10183     10185     10187     10184     10183     10185     10233
     10185     10233     10236     10237     10185     10233     10236     10238
     10185     10233     10236     10239     10186     10185     10233     10234
     10186     10185     10233     10235     10186     10185     10233     10236
     10187     10185     10233     10234     10187     10185     10233     10235
     10187     10185     10233     10236     10188     10191     10194     10195
     10188     10191     10194     10196     10188     10191     10194     10197
     10189     10188     10191     10192     10189     10188     10191     10193
     10189     10188     10191     10194     10190     10188     10191     10192
     10190     10188     10191     10193     10190     10188     10191     10194
     10191     10194     10197     10198     10191     10194     10197     10199
     10191     10194     10197     10200     10192     10191     10194     10195
     10192     10191     10194     10196     10192     10191     10194     10197
     10193     10191     10194     10195     10193     10191     10194     10196
     10193     10191     10194     10197     10194     10197     10200     10201
     10194     10197     10200     10202     10194     10197     10200     10203
     10195     10194     10197     10198     10195     10194     10197     10199
     10195     10194     10197     10200     10196     10194     10197     10198
     10196     10194     10197     10199     10196     10194     10197     10200
     10197     10200     10203     10204     10197     10200     10203     10205
     10197     10200     10203     10206     10198     10197     10200     10201
     10198     10197     10200     10202     10198     10197     10200     10203
     10199     10197     10200     10201     10199     10197     10200     10202
     10199     10197     10200     10203     10200     10203     10206     10207
     10200     10203     10206     10208     10201     10200     10203     10204
     10201     10200     10203     10205     10201     10200     10203     10206
     10202     10200     10203     10204     10202     10200     10203     10205
     10202     10200     10203     10206     10203     10206     10208     10209
     10203     10206     10208     10210     10204     10203     10206     10207
     10204     10203     10206     10208     10205     10203     10206     10207
     10205     10203     10206     10208     10206     10208     10210     10211
     10206     10208     10210     10212     10206     10208     10210     10213
     10207     10206     10208     10209     10207     10206     10208     10210
     10208     10210     10213     10214     10208     10210     10213     10215
     10209     10208     10210     10211     10209     10208     10210     10212
     10209     10208     10210     10213     10210     10213     10215     10216
     10210     10213     10215     10217     10211     10210     10213     10214
     10211     10210     10213     10215     10212     10210     10213     10214
     10212     10210     10213     10215     10213     10215     10217     10218
     10213     10215     10217     10219     10213     10215     10217     10220
     10214     10213     10215     10216     10214     10213     10215     10217
     10215     10217     10220     10221     10215     10217     10220     10222
     10215     10217     10220     10223     10216     10215     10217     10218
     10216     10215     10217     10219     10216     10215     10217     10220
     10217     10220     10223     10224     10217     10220     10223     10225
     10217     10220     10223     10226     10218     10217     10220     10221
     10218     10217     10220     10222     10218     10217     10220     10223
     10219     10217     10220     10221     10219     10217     10220     10222
     10219     10217     10220     10223     10220     10223     10226     10227
     10220     10223     10226     10228     10220     10223     10226     10229
     10221     10220     10223     10224     10221     10220     10223     10225
     10221     10220     10223     10226     10222     10220     10223     10224
     10222     10220     10223     10225     10222     10220     10223     10226
     10223     10226     10229     10230     10223     10226     10229     10231
     10223     10226     10229     10232     10224     10223     10226     10227
     10224     10223     10226     10228     10224     10223     10226     10229
     10225     10223     10226     10227     10225     10223     10226     10228
     10225     10223     10226     10229     10227     10226     10229     10230
     10227     10226     10229     10231     10227     10226     10229     10232
     10228     10226     10229     10230     10228     10226     10229     10231
     10228     10226     10229     10232     10233     10236     10239     10240
     10233     10236     10239     10241     10233     10236     10239     10242
     10234     10233     10236     10237     10234     10233     10236     10238
     10234     10233     10236     10239     10235     10233     10236     10237
     10235     10233     10236     10238     10235     10233     10236     10239
     10236     10239     10242     10243     10236     10239     10242     10244
     10236     10239     10242     10245     10237     10236     10239     10240
     10237     10236     10239     10241     10237     10236     10239     10242
     10238     10236     10239     10240     10238     10236     10239     10241
     10238     10236     10239     10242     10239     10242     10245     10246
     10239     10242     10245     10247     10239     10242     10245     10248
     10240     10239     10242     10243     10240     10239     10242     10244
     10240     10239     10242     10245     10241     10239     10242     10243
     10241     10239     10242     10244     10241     10239     10242     10245
     10242     10245     10248     10249     10242     10245     10248     10250
     10242     10245     10248     10251     10243     10242     10245     10246
     10243     10242     10245     10247     10243     10242     10245     10248
     10244     10242     10245     10246     10244     10242     10245     10247
     10244     10242     10245     10248     10245     10248     10251     10252
     10245     10248     10251     10253     10245     10248     10251     10254
     10246     10245     10248     10249     10246     10245     10248     10250
     10246     10245     10248     10251     10247     10245     10248     10249
     10247     10245     10248     10250     10247     10245     10248     10251
     10248     10251     10254     10255     10248     10251     10254     10256
     10248     10251     10254     10257     10249     10248     10251     10252
     10249     10248     10251     10253     10249     10248     10251     10254
     10250     10248     10251     10252     10250     10248     10251     10253
     10250     10248     10251     10254     10251     10254     10257     10258
     10251     10254     10257     10259     10251     10254     10257     10260
     10252     10251     10254     10255     10252     10251     10254     10256
     10252     10251     10254     10257     10253     10251     10254     10255
     10253     10251     10254     10256     10253     10251     10254     10257
     10254     10257     10260     10261     10254     10257     10260     10262
     10254     10257     10260     10263     10255     10254     10257     10258
     10255     10254     10257     10259     10255     10254     10257     10260
     10256     10254     10257     10258     10256     10254     10257     10259
     10256     10254     10257     10260     10257     10260     10263     10264
     10257     10260     10263     10265     10257     10260     10263     10266
     10258     10257     10260     10261     10258     10257     10260     10262
     10258     10257     10260     10263     10259     10257     10260     10261
     10259     10257     10260     10262     10259     10257     10260     10263
     10260     10263     10266     10267     10260     10263     10266     10268
     10260     10263     10266     10269     10261     10260     10263     10264
     10261     10260     10263     10265     10261     10260     10263     10266
     10262     10260     10263     10264     10262     10260     10263     10265
     10262     10260     10263     10266     10263     10266     10269     10270
     10263     10266     10269     10271     10263     10266     10269     10272
     10264     10263     10266     10267     10264     10263     10266     10268
     10264     10263     10266     10269     10265     10263     10266     10267
     10265     10263     10266     10268     10265     10263     10266     10269
     10266     10269     10272     10273     10266     10269     10272     10274
     10266     10269     10272     10275     10267     10266     10269     10270
     10267     10266     10269     10271     10267     10266     10269     10272
     10268     10266     10269     10270     10268     10266     10269     10271
     10268     10266     10269     10272     10269     10272     10275     10276
     10269     10272     10275     10277     10269     10272     10275     10278
     10270     10269     10272     10273     10270     10269     10272     10274
     10270     10269     10272     10275     10271     10269     10272     10273
     10271     10269     10272     10274     10271     10269     10272     10275
     10272     10275     10278     10279     10272     10275     10278     10280
     10272     10275     10278     10281     10273     10272     10275     10276
     10273     10272     10275     10277     10273     10272     10275     10278
     10274     10272     10275     10276     10274     10272     10275     10277
     10274     10272     10275     10278     10276     10275     10278     10279
     10276     10275     10278     10280     10276     10275     10278     10281
     10277     10275     10278     10279     10277     10275     10278     10280
     10277     10275     10278     10281     10282     10283     10298     10299
     10282     10283     10298     10300     10282     10283     10298     10304
     10283     10282     10286     10287     10283     10282     10286     10288
     10283     10282     10286     10289     10283     10282     10290     10291
     10283     10282     10290     10292     10283     10282     10290     10293
     10283     10282     10294     10295     10283     10282     10294     10296
     10283     10282     10294     10297     10283     10298     10304     10301
     10284     10283     10282     10286     10284     10283     10282     10290
     10284     10283     10282     10294     10284     10283     10298     10299
     10284     10283     10298     10300     10284     10283     10298     10304
     10285     10283     10282     10286     10285     10283     10282     10290
     10285     10283     10282     10294     10285     10283     10298     10299
     10285     10283     10298     10300     10285     10283     10298     10304
     10286     10282     10283     10298     10286     10282     10290     10291
     10286     10282     10290     10292     10286     10282     10290     10293
     10286     10282     10294     10295     10286     10282     10294     10296
     10286     10282     10294     10297     10287     10286     10282     10290
     10287     10286     10282     10294     10288     10286     10282     10290
     10288     10286     10282     10294     10289     10286     10282     10290
     10289     10286     10282     10294     10290     10282     10283     10298
     10290     10282     10294     10295     10290     10282     10294     10296
     10290     10282     10294     10297     10291     10290     10282     10294
     10292     10290     10282     10294     10293     10290     10282     10294
     10294     10282     10283     10298     10298     10304     10301     10302
     10298     10304     10301     10303     10298     10304     10301     10305
     10299     10298     10304     10301     10300     10298     10304     10301
     10301     10305     10306     10307     10301     10305     10306     10308
     10301     10305     10306     10309     10302     10301     10305     10306
     10303     10301     10305     10306     10304     10301     10305     10306
     10305     10306     10309     10310     10305     10306     10309     10311
     10305     10306     10309     10317     10306     10309     10311     10312
     10306     10309     10317     10318     10306     10309     10317     10319
     10306     10309     10317     10320     10307     10306     10309     10310
     10307     10306     10309     10311     10307     10306     10309     10317
     10308     10306     10309     10310     10308     10306     10309     10311
     10308     10306     10309     10317     10309     10311     10312     10313
     10309     10311     10312     10314     10309     10317     10320     10321
     10310     10309     10311     10312     10310     10309     10317     10318
     10310     10309     10317     10319     10310     10309     10317     10320
     10311     10309     10317     10318     10311     10309     10317     10319
     10311     10309     10317     10320     10311     10312     10314     10315
     10311     10312     10314     10316     10311     10312     10314     10326
     10312     10311     10309     10317     10312     10314     10326     10327
     10312     10314     10326     10328     10312     10314     10326     10329
     10313     10312     10314     10315     10313     10312     10314     10316
     10313     10312     10314     10326     10314     10326     10329     10330
     10314     10326     10329     10331     10314     10326     10329     10332
     10315     10314     10326     10327     10315     10314     10326     10328
     10315     10314     10326     10329     10316     10314     10326     10327
     10316     10314     10326     10328     10316     10314     10326     10329
     10317     10320     10321     10322     10317     10320     10321     10323
     10318     10317     10320     10321     10319     10317     10320     10321
     10320     10321     10323     10324     10320     10321     10323     10325
     10320     10321     10323     10373     10321     10323     10373     10374
     10321     10323     10373     10375     10321     10323     10373     10376
     10322     10321     10323     10324     10322     10321     10323     10325
     10322     10321     10323     10373     10323     10373     10376     10377
     10323     10373     10376     10378     10323     10373     10376     10379
     10324     10323     10373     10374     10324     10323     10373     10375
     10324     10323     10373     10376     10325     10323     10373     10374
     10325     10323     10373     10375     10325     10323     10373     10376
     10326     10329     10332     10333     10326     10329     10332     10334
     10326     10329     10332     10335     10327     10326     10329     10330
     10327     10326     10329     10331     10327     10326     10329     10332
     10328     10326     10329     10330     10328     10326     10329     10331
     10328     10326     10329     10332     10329     10332     10335     10336
     10329     10332     10335     10337     10329     10332     10335     10338
     10330     10329     10332     10333     10330     10329     10332     10334
     10330     10329     10332     10335     10331     10329     10332     10333
     10331     10329     10332     10334     10331     10329     10332     10335
     10332     10335     10338     10339     10332     10335     10338     10340
     10332     10335     10338     10341     10333     10332     10335     10336
     10333     10332     10335     10337     10333     10332     10335     10338
     10334     10332     10335     10336     10334     10332     10335     10337
     10334     10332     10335     10338     10335     10338     10341     10342
     10335     10338     10341     10343     10335     10338     10341     10344
     10336     10335     10338     10339     10336     10335     10338     10340
     10336     10335     10338     10341     10337     10335     10338     10339
     10337     10335     10338     10340     10337     10335     10338     10341
     10338     10341     10344     10345     10338     10341     10344     10346
     10339     10338     10341     10342     10339     10338     10341     10343
     10339     10338     10341     10344     10340     10338     10341     10342
     10340     10338     10341     10343     10340     10338     10341     10344
     10341     10344     10346     10347     10341     10344     10346     10348
     10342     10341     10344     10345     10342     10341     10344     10346
     10343     10341     10344     10345     10343     10341     10344     10346
     10344     10346     10348     10349     10344     10346     10348     10350
     10344     10346     10348     10351     10345     10344     10346     10347
     10345     10344     10346     10348     10346     10348     10351     10352
     10346     10348     10351     10353     10346     10348     10351     10354
     10347     10346     10348     10349     10347     10346     10348     10350
     10347     10346     10348     10351     10348     10351     10354     10355
     10348     10351     10354     10356     10348     10351     10354     10357
     10349     10348     10351     10352     10349     10348     10351     10353
     10349     10348     10351     10354     10350     10348     10351     10352
     10350     10348     10351     10353     10350     10348     10351     10354
     10351     10354     10357     10358     10351     10354     10357     10359
     10351     10354     10357     10360     10352     10351     10354     10355
     10352     10351     10354     10356     10352     10351     10354     10357
     10353     10351     10354     10355     10353     10351     10354     10356
     10353     10351     10354     10357     10354     10357     10360     10361
     10354     10357     10360     10362     10354     10357     10360     10363
     10355     10354     10357     10358     10355     10354     10357     10359
     10355     10354     10357     10360     10356     10354     10357     10358
     10356     10354     10357     10359     10356     10354     10357     10360
     10357     10360     10363     10364     10357     10360     10363     10365
     10357     10360     10363     10366     10358     10357     10360     10361
     10358     10357     10360     10362     10358     10357     10360     10363
     10359     10357     10360     10361     10359     10357     10360     10362
     10359     10357     10360     10363     10360     10363     10366     10367
     10360     10363     10366     10368     10360     10363     10366     10369
     10361     10360     10363     10364     10361     10360     10363     10365
     10361     10360     10363     10366     10362     10360     10363     10364
     10362     10360     10363     10365     10362     10360     10363     10366
     10363     10366     10369     10370     10363     10366     10369     10371
     10363     10366     10369     10372     10364     10363     10366     10367
     10364     10363     10366     10368     10364     10363     10366     10369
     10365     10363     10366     10367     10365     10363     10366     10368
     10365     10363     10366     10369     10367     10366     10369     10370
     10367     10366     10369     10371     10367     10366     10369     10372
     10368     10366     10369     10370     10368     10366     10369     10371
     10368     10366     10369     10372     10373     10376     10379     10380
     10373     10376     10379     10381     10373     10376     10379     10382
     10374     10373     10376     10377     10374     10373     10376     10378
     10374     10373     10376     10379     10375     10373     10376     10377
     10375     10373     10376     10378     10375     10373     10376     10379
     10376     10379     10382     10383     10376     10379     10382     10384
     10376     10379     10382     10385     10377     10376     10379     10380
     10377     10376     10379     10381     10377     10376     10379     10382
     10378     10376     10379     10380     10378     10376     10379     10381
     10378     10376     10379     10382     10379     10382     10385     10386
     10379     10382     10385     10387     10379     10382     10385     10388
     10380     10379     10382     10383     10380     10379     10382     10384
     10380     10379     10382     10385     10381     10379     10382     10383
     10381     10379     10382     10384     10381     10379     10382     10385
     10382     10385     10388     10389     10382     10385     10388     10390
     10382     10385     10388     10391     10383     10382     10385     10386
     10383     10382     10385     10387     10383     10382     10385     10388
     10384     10382     10385     10386     10384     10382     10385     10387
     10384     10382     10385     10388     10385     10388     10391     10392
     10385     10388     10391     10393     10385     10388     10391     10394
     10386     10385     10388     10389     10386     10385     10388     10390
     10386     10385     10388     10391     10387     10385     10388     10389
     10387     10385     10388     10390     10387     10385     10388     10391
     10388     10391     10394     10395     10388     10391     10394     10396
     10388     10391     10394     10397     10389     10388     10391     10392
     10389     10388     10391     10393     10389     10388     10391     10394
     10390     10388     10391     10392     10390     10388     10391     10393
     10390     10388     10391     10394     10391     10394     10397     10398
     10391     10394     10397     10399     10391     10394     10397     10400
     10392     10391     10394     10395     10392     10391     10394     10396
     10392     10391     10394     10397     10393     10391     10394     10395
     10393     10391     10394     10396     10393     10391     10394     10397
     10394     10397     10400     10401     10394     10397     10400     10402
     10394     10397     10400     10403     10395     10394     10397     10398
     10395     10394     10397     10399     10395     10394     10397     10400
     10396     10394     10397     10398     10396     10394     10397     10399
     10396     10394     10397     10400     10397     10400     10403     10404
     10397     10400     10403     10405     10397     10400     10403     10406
     10398     10397     10400     10401     10398     10397     10400     10402
     10398     10397     10400     10403     10399     10397     10400     10401
     10399     10397     10400     10402     10399     10397     10400     10403
     10400     10403     10406     10407     10400     10403     10406     10408
     10400     10403     10406     10409     10401     10400     10403     10404
     10401     10400     10403     10405     10401     10400     10403     10406
     10402     10400     10403     10404     10402     10400     10403     10405
     10402     10400     10403     10406     10403     10406     10409     10410
     10403     10406     10409     10411     10403     10406     10409     10412
     10404     10403     10406     10407     10404     10403     10406     10408
     10404     10403     10406     10409     10405     10403     10406     10407
     10405     10403     10406     10408     10405     10403     10406     10409
     10406     10409     10412     10413     10406     10409     10412     10414
     10406     10409     10412     10415     10407     10406     10409     10410
     10407     10406     10409     10411     10407     10406     10409     10412
     10408     10406     10409     10410     10408     10406     10409     10411
     10408     10406     10409     10412     10410     10409     10412     10413
     10410     10409     10412     10414     10410     10409     10412     10415
     10411     10409     10412     10413     10411     10409     10412     10414
     10411     10409     10412     10415     10416     10420     10423     10424
     10416     10420     10423     10454     10416     10462     10459     10454
     10416     10462     10459     10460     10416     10462     10459     10461
     10417     10416     10418     10419     10417     10416     10420     10421
     10417     10416     10420     10422     10417     10416     10420     10423
     10417     10416     10462     10459     10417     10416     10462     10463
     10417     10416     10462     10464     10418     10416     10420     10421
     10418     10416     10420     10422     10418     10416     10420     10423
     10418     10416     10462     10459     10418     10416     10462     10463
     10418     10416     10462     10464     10419     10418     10416     10420
     10419     10418     10416     10462     10420     10416     10462     10459
     10420     10416     10462     10463     10420     10416     10462     10464
     10420     10423     10424     10425     10420     10423     10424     10426
     10420     10423     10454     10452     10420     10423     10454     10455
     10420     10423     10454     10459     10421     10420     10416     10462
     10421     10420     10423     10424     10421     10420     10423     10454
     10422     10420     10416     10462     10422     10420     10423     10424
     10422     10420     10423     10454     10423     10420     10416     10462
     10423     10424     10426     10427     10423     10424     10426     10428
     10423     10424     10426     10429     10423     10454     10452     10429
     10423     10454     10452     10449     10423     10454     10452     10453
     10423     10454     10455     10456     10423     10454     10455     10457
     10423     10454     10455     10458     10423     10454     10459     10460
     10423     10454     10459     10461     10423     10454     10459     10462
     10424     10423     10454     10452     10424     10423     10454     10455
     10424     10423     10454     10459     10424     10426     10429     10430
     10424     10426     10429     10431     10424     10426     10429     10452
     10425     10424     10423     10454     10425     10424     10426     10427
     10425     10424     10426     10428     10425     10424     10426     10429
     10426     10424     10423     10454     10426     10429     10431     10432
     10426     10429     10431     10433     10426     10429     10431     10441
     10426     10429     10452     10449     10426     10429     10452     10453
     10426     10429     10452     10454     10427     10426     10429     10430
     10427     10426     10429     10431     10427     10426     10429     10452
     10428     10426     10429     10430     10428     10426     10429     10431
     10428     10426     10429     10452     10429     10431     10433     10434
     10429     10431     10433     10435     10429     10431     10433     10436
     10429     10431     10441     10439     10429     10431     10441     10442
     10429     10431     10441     10446     10429     10452     10449     10446
     10429     10452     10449     10450     10429     10452     10449     10451
     10429     10452     10454     10455     10429     10452     10454     10459
     10430     10429     10431     10432     10430     10429     10431     10433
     10430     10429     10431     10441     10430     10429     10452     10449
     10430     10429     10452     10453     10430     10429     10452     10454
     10431     10429     10452     10449     10431     10429     10452     10453
     10431     10429     10452     10454     10431     10433     10436     10437
     10431     10433     10436     10438     10431     10433     10436     10439
     10431     10441     10439     10436     10431     10441     10439     10440
     10431     10441     10439     10465     10431     10441     10442     10443
     10431     10441     10442     10444     10431     10441     10442     10445
     10431     10441     10446     10447     10431     10441     10446     10448
     10431     10441     10446     10449     10432     10431     10429     10452
     10432     10431     10433     10434     10432     10431     10433     10435
     10432     10431     10433     10436     10432     10431     10441     10439
     10432     10431     10441     10442     10432     10431     10441     10446
     10433     10431     10429     10452     10433     10431     10441     10439
     10433     10431     10441     10442     10433     10431     10441     10446
     10433     10436     10439     10440     10433     10436     10439     10441
     10433     10436     10439     10465     10434     10433     10431     10441
     10434     10433     10436     10437     10434     10433     10436     10438
     10434     10433     10436     10439     10435     10433     10431     10441
     10435     10433     10436     10437     10435     10433     10436     10438
     10435     10433     10436     10439     10436     10433     10431     10441
     10436     10439     10441     10442     10436     10439     10441     10446
     10436     10439     10465     10466     10436     10439     10465     10467
     10436     10439     10465     10471     10437     10436     10439     10440
     10437     10436     10439     10441     10437     10436     10439     10465
     10438     10436     10439     10440     10438     10436     10439     10441
     10438     10436     10439     10465     10439     10441     10442     10443
     10439     10441     10442     10444     10439     10441     10442     10445
     10439     10441     10446     10447     10439     10441     10446     10448
     10439     10441     10446     10449     10439     10465     10467     10468
     10439     10465     10467     10469     10439     10465     10467     10470
     10439     10465     10471     10472     10439     10465     10471     10473
     10439     10465     10471     10474     10440     10439     10441     10442
     10440     10439     10441     10446     10440     10439     10465     10466
     10440     10439     10465     10467     10440     10439     10465     10471
     10441     10431     10429     10452     10441     10439     10465     10466
     10441     10439     10465     10467     10441     10439     10465     10471
     10441     10446     10449     10450     10441     10446     10449     10451
     10441     10446     10449     10452     10442     10441     10439     10465
     10442     10441     10446     10447     10442     10441     10446     10448
     10442     10441     10446     10449     10443     10442     10441     10446
     10444     10442     10441     10446     10445     10442     10441     10446
     10446     10441     10439     10465     10446     10449     10452     10453
     10446     10449     10452     10454     10447     10446     10449     10450
     10447     10446     10449     10451     10447     10446     10449     10452
     10448     10446     10449     10450     10448     10446     10449     10451
     10448     10446     10449     10452     10449     10452     10454     10455
     10449     10452     10454     10459     10450     10449     10452     10453
     10450     10449     10452     10454     10451     10449     10452     10453
     10451     10449     10452     10454     10452     10454     10455     10456
     10452     10454     10455     10457     10452     10454     10455     10458
     10452     10454     10459     10460     10452     10454     10459     10461
     10452     10454     10459     10462     10453     10452     10454     10455
     10453     10452     10454     10459     10454     10459     10462     10463
     10454     10459     10462     10464     10455     10454     10459     10460
     10455     10454     10459     10461     10455     10454     10459     10462
     10456     10455     10454     10459     10457     10455     10454     10459
     10458     10455     10454     10459     10460     10459     10462     10463
     10460     10459     10462     10464     10461     10459     10462     10463
     10461     10459     10462     10464     10465     10471     10474     10475
     10465     10471     10474     10476     10465     10471     10474     10477
     10466     10465     10467     10468     10466     10465     10467     10469
     10466     10465     10467     10470     10466     10465     10471     10472
     10466     10465     10471     10473     10466     10465     10471     10474
     10467     10465     10471     10472     10467     10465     10471     10473
     10467     10465     10471     10474     10468     10467     10465     10471
     10469     10467     10465     10471     10470     10467     10465     10471
     10471     10474     10477     10478     10471     10474     10477     10479
     10471     10474     10477     10480     10472     10471     10474     10475
     10472     10471     10474     10476     10472     10471     10474     10477
     10473     10471     10474     10475     10473     10471     10474     10476
     10473     10471     10474     10477     10474     10477     10480     10481
     10474     10477     10480     10482     10474     10477     10480     10486
     10475     10474     10477     10478     10475     10474     10477     10479
     10475     10474     10477     10480     10476     10474     10477     10478
     10476     10474     10477     10479     10476     10474     10477     10480
     10477     10480     10482     10483     10477     10480     10482     10484
     10477     10480     10482     10485     10477     10480     10486     10487
     10477     10480     10486     10488     10477     10480     10486     10489
     10478     10477     10480     10481     10478     10477     10480     10482
     10478     10477     10480     10486     10479     10477     10480     10481
     10479     10477     10480     10482     10479     10477     10480     10486
     10481     10480     10482     10483     10481     10480     10482     10484
     10481     10480     10482     10485     10481     10480     10486     10487
     10481     10480     10486     10488     10481     10480     10486     10489
     10482     10480     10486     10487     10482     10480     10486     10488
     10482     10480     10486     10489     10483     10482     10480     10486
     10484     10482     10480     10486     10485     10482     10480     10486
     10490     10494     10497     10498     10490     10494     10497     10499
     10490     10494     10497     10503     10491     10490     10494     10495
     10491     10490     10494     10496     10491     10490     10494     10497
     10492     10490     10494     10495     10492     10490     10494     10496
     10492     10490     10494     10497     10493     10490     10494     10495
     10493     10490     10494     10496     10493     10490     10494     10497
     10494     10497     10503     10500     10495     10494     10497     10498
     10495     10494     10497     10499     10495     10494     10497     10503
     10496     10494     10497     10498     10496     10494     10497     10499
     10496     10494     10497     10503     10497     10503     10500     10501
     10497     10503     10500     10502     10497     10503     10500     10504
     10498     10497     10503     10500     10499     10497     10503     10500
     10500     10504     10505     10506     10500     10504     10505     10507
     10500     10504     10505     10508     10501     10500     10504     10505
     10502     10500     10504     10505     10503     10500     10504     10505
     10504     10505     10508     10509     10504     10505     10508     10510
     10504     10505     10508     10516     10505     10508     10510     10511
     10505     10508     10516     10517     10505     10508     10516     10518
     10505     10508     10516     10519     10506     10505     10508     10509
     10506     10505     10508     10510     10506     10505     10508     10516
     10507     10505     10508     10509     10507     10505     10508     10510
     10507     10505     10508     10516     10508     10510     10511     10512
     10508     10510     10511     10513     10508     10516     10519     10520
     10509     10508     10510     10511     10509     10508     10516     10517
     10509     10508     10516     10518     10509     10508     10516     10519
     10510     10508     10516     10517     10510     10508     10516     10518
     10510     10508     10516     10519     10510     10511     10513     10514
     10510     10511     10513     10515     10510     10511     10513     10525
     10511     10510     10508     10516     10511     10513     10525     10526
     10511     10513     10525     10527     10511     10513     10525     10528
     10512     10511     10513     10514     10512     10511     10513     10515
     10512     10511     10513     10525     10513     10525     10528     10529
     10513     10525     10528     10530     10513     10525     10528     10531
     10514     10513     10525     10526     10514     10513     10525     10527
     10514     10513     10525     10528     10515     10513     10525     10526
     10515     10513     10525     10527     10515     10513     10525     10528
     10516     10519     10520     10521     10516     10519     10520     10522
     10517     10516     10519     10520     10518     10516     10519     10520
     10519     10520     10522     10523     10519     10520     10522     10524
     10519     10520     10522     10572     10520     10522     10572     10573
     10520     10522     10572     10574     10520     10522     10572     10575
     10521     10520     10522     10523     10521     10520     10522     10524
     10521     10520     10522     10572     10522     10572     10575     10576
     10522     10572     10575     10577     10522     10572     10575     10578
     10523     10522     10572     10573     10523     10522     10572     10574
     10523     10522     10572     10575     10524     10522     10572     10573
     10524     10522     10572     10574     10524     10522     10572     10575
     10525     10528     10531     10532     10525     10528     10531     10533
     10525     10528     10531     10534     10526     10525     10528     10529
     10526     10525     10528     10530     10526     10525     10528     10531
     10527     10525     10528     10529     10527     10525     10528     10530
     10527     10525     10528     10531     10528     10531     10534     10535
     10528     10531     10534     10536     10528     10531     10534     10537
     10529     10528     10531     10532     10529     10528     10531     10533
     10529     10528     10531     10534     10530     10528     10531     10532
     10530     10528     10531     10533     10530     10528     10531     10534
     10531     10534     10537     10538     10531     10534     10537     10539
     10531     10534     10537     10540     10532     10531     10534     10535
     10532     10531     10534     10536     10532     10531     10534     10537
     10533     10531     10534     10535     10533     10531     10534     10536
     10533     10531     10534     10537     10534     10537     10540     10541
     10534     10537     10540     10542     10534     10537     10540     10543
     10535     10534     10537     10538     10535     10534     10537     10539
     10535     10534     10537     10540     10536     10534     10537     10538
     10536     10534     10537     10539     10536     10534     10537     10540
     10537     10540     10543     10544     10537     10540     10543     10545
     10538     10537     10540     10541     10538     10537     10540     10542
     10538     10537     10540     10543     10539     10537     10540     10541
     10539     10537     10540     10542     10539     10537     10540     10543
     10540     10543     10545     10546     10540     10543     10545     10547
     10541     10540     10543     10544     10541     10540     10543     10545
     10542     10540     10543     10544     10542     10540     10543     10545
     10543     10545     10547     10548     10543     10545     10547     10549
     10543     10545     10547     10550     10544     10543     10545     10546
     10544     10543     10545     10547     10545     10547     10550     10551
     10545     10547     10550     10552     10545     10547     10550     10553
     10546     10545     10547     10548     10546     10545     10547     10549
     10546     10545     10547     10550     10547     10550     10553     10554
     10547     10550     10553     10555     10547     10550     10553     10556
     10548     10547     10550     10551     10548     10547     10550     10552
     10548     10547     10550     10553     10549     10547     10550     10551
     10549     10547     10550     10552     10549     10547     10550     10553
     10550     10553     10556     10557     10550     10553     10556     10558
     10550     10553     10556     10559     10551     10550     10553     10554
     10551     10550     10553     10555     10551     10550     10553     10556
     10552     10550     10553     10554     10552     10550     10553     10555
     10552     10550     10553     10556     10553     10556     10559     10560
     10553     10556     10559     10561     10553     10556     10559     10562
     10554     10553     10556     10557     10554     10553     10556     10558
     10554     10553     10556     10559     10555     10553     10556     10557
     10555     10553     10556     10558     10555     10553     10556     10559
     10556     10559     10562     10563     10556     10559     10562     10564
     10556     10559     10562     10565     10557     10556     10559     10560
     10557     10556     10559     10561     10557     10556     10559     10562
     10558     10556     10559     10560     10558     10556     10559     10561
     10558     10556     10559     10562     10559     10562     10565     10566
     10559     10562     10565     10567     10559     10562     10565     10568
     10560     10559     10562     10563     10560     10559     10562     10564
     10560     10559     10562     10565     10561     10559     10562     10563
     10561     10559     10562     10564     10561     10559     10562     10565
     10562     10565     10568     10569     10562     10565     10568     10570
     10562     10565     10568     10571     10563     10562     10565     10566
     10563     10562     10565     10567     10563     10562     10565     10568
     10564     10562     10565     10566     10564     10562     10565     10567
     10564     10562     10565     10568     10566     10565     10568     10569
     10566     10565     10568     10570     10566     10565     10568     10571
     10567     10565     10568     10569     10567     10565     10568     10570
     10567     10565     10568     10571     10572     10575     10578     10579
     10572     10575     10578     10580     10572     10575     10578     10581
     10573     10572     10575     10576     10573     10572     10575     10577
     10573     10572     10575     10578     10574     10572     10575     10576
     10574     10572     10575     10577     10574     10572     10575     10578
     10575     10578     10581     10582     10575     10578     10581     10583
     10575     10578     10581     10584     10576     10575     10578     10579
     10576     10575     10578     10580     10576     10575     10578     10581
     10577     10575     10578     10579     10577     10575     10578     10580
     10577     10575     10578     10581     10578     10581     10584     10585
     10578     10581     10584     10586     10578     10581     10584     10587
     10579     10578     10581     10582     10579     10578     10581     10583
     10579     10578     10581     10584     10580     10578     10581     10582
     10580     10578     10581     10583     10580     10578     10581     10584
     10581     10584     10587     10588     10581     10584     10587     10589
     10581     10584     10587     10590     10582     10581     10584     10585
     10582     10581     10584     10586     10582     10581     10584     10587
     10583     10581     10584     10585     10583     10581     10584     10586
     10583     10581     10584     10587     10584     10587     10590     10591
     10584     10587     10590     10592     10584     10587     10590     10593
     10585     10584     10587     10588     10585     10584     10587     10589
     10585     10584     10587     10590     10586     10584     10587     10588
     10586     10584     10587     10589     10586     10584     10587     10590
     10587     10590     10593     10594     10587     10590     10593     10595
     10587     10590     10593     10596     10588     10587     10590     10591
     10588     10587     10590     10592     10588     10587     10590     10593
     10589     10587     10590     10591     10589     10587     10590     10592
     10589     10587     10590     10593     10590     10593     10596     10597
     10590     10593     10596     10598     10590     10593     10596     10599
     10591     10590     10593     10594     10591     10590     10593     10595
     10591     10590     10593     10596     10592     10590     10593     10594
     10592     10590     10593     10595     10592     10590     10593     10596
     10593     10596     10599     10600     10593     10596     10599     10601
     10593     10596     10599     10602     10594     10593     10596     10597
     10594     10593     10596     10598     10594     10593     10596     10599
     10595     10593     10596     10597     10595     10593     10596     10598
     10595     10593     10596     10599     10596     10599     10602     10603
     10596     10599     10602     10604     10596     10599     10602     10605
     10597     10596     10599     10600     10597     10596     10599     10601
     10597     10596     10599     10602     10598     10596     10599     10600
     10598     10596     10599     10601     10598     10596     10599     10602
     10599     10602     10605     10606     10599     10602     10605     10607
     10599     10602     10605     10608     10600     10599     10602     10603
     10600     10599     10602     10604     10600     10599     10602     10605
     10601     10599     10602     10603     10601     10599     10602     10604
     10601     10599     10602     10605     10602     10605     10608     10609
     10602     10605     10608     10610     10602     10605     10608     10611
     10603     10602     10605     10606     10603     10602     10605     10607
     10603     10602     10605     10608     10604     10602     10605     10606
     10604     10602     10605     10607     10604     10602     10605     10608
     10605     10608     10611     10612     10605     10608     10611     10613
     10605     10608     10611     10614     10606     10605     10608     10609
     10606     10605     10608     10610     10606     10605     10608     10611
     10607     10605     10608     10609     10607     10605     10608     10610
     10607     10605     10608     10611     10608     10611     10614     10615
     10608     10611     10614     10616     10608     10611     10614     10617
     10609     10608     10611     10612     10609     10608     10611     10613
     10609     10608     10611     10614     10610     10608     10611     10612
     10610     10608     10611     10613     10610     10608     10611     10614
     10611     10614     10617     10618     10611     10614     10617     10619
     10611     10614     10617     10620     10612     10611     10614     10615
     10612     10611     10614     10616     10612     10611     10614     10617
     10613     10611     10614     10615     10613     10611     10614     10616
     10613     10611     10614     10617     10615     10614     10617     10618
     10615     10614     10617     10619     10615     10614     10617     10620
     10616     10614     10617     10618     10616     10614     10617     10619
     10616     10614     10617     10620     10621     10625     10628     10629
     10621     10625     10628     10630     10621     10625     10628     10634
     10622     10621     10625     10626     10622     10621     10625     10627
     10622     10621     10625     10628     10623     10621     10625     10626
     10623     10621     10625     10627     10623     10621     10625     10628
     10624     10621     10625     10626     10624     10621     10625     10627
     10624     10621     10625     10628     10625     10628     10634     10631
     10626     10625     10628     10629     10626     10625     10628     10630
     10626     10625     10628     10634     10627     10625     10628     10629
     10627     10625     10628     10630     10627     10625     10628     10634
     10628     10634     10631     10632     10628     10634     10631     10633
     10628     10634     10631     10635     10629     10628     10634     10631
     10630     10628     10634     10631     10631     10635     10636     10637
     10631     10635     10636     10638     10631     10635     10636     10639
     10632     10631     10635     10636     10633     10631     10635     10636
     10634     10631     10635     10636     10635     10636     10639     10640
     10635     10636     10639     10641     10635     10636     10639     10647
     10636     10639     10641     10642     10636     10639     10647     10648
     10636     10639     10647     10649     10636     10639     10647     10650
     10637     10636     10639     10640     10637     10636     10639     10641
     10637     10636     10639     10647     10638     10636     10639     10640
     10638     10636     10639     10641     10638     10636     10639     10647
     10639     10641     10642     10643     10639     10641     10642     10644
     10639     10647     10650     10651     10640     10639     10641     10642
     10640     10639     10647     10648     10640     10639     10647     10649
     10640     10639     10647     10650     10641     10639     10647     10648
     10641     10639     10647     10649     10641     10639     10647     10650
     10641     10642     10644     10645     10641     10642     10644     10646
     10641     10642     10644     10656     10642     10641     10639     10647
     10642     10644     10656     10657     10642     10644     10656     10658
     10642     10644     10656     10659     10643     10642     10644     10645
     10643     10642     10644     10646     10643     10642     10644     10656
     10644     10656     10659     10660     10644     10656     10659     10661
     10644     10656     10659     10662     10645     10644     10656     10657
     10645     10644     10656     10658     10645     10644     10656     10659
     10646     10644     10656     10657     10646     10644     10656     10658
     10646     10644     10656     10659     10647     10650     10651     10652
     10647     10650     10651     10653     10648     10647     10650     10651
     10649     10647     10650     10651     10650     10651     10653     10654
     10650     10651     10653     10655     10650     10651     10653     10703
     10651     10653     10703     10704     10651     10653     10703     10705
     10651     10653     10703     10706     10652     10651     10653     10654
     10652     10651     10653     10655     10652     10651     10653     10703
     10653     10703     10706     10707     10653     10703     10706     10708
     10653     10703     10706     10709     10654     10653     10703     10704
     10654     10653     10703     10705     10654     10653     10703     10706
     10655     10653     10703     10704     10655     10653     10703     10705
     10655     10653     10703     10706     10656     10659     10662     10663
     10656     10659     10662     10664     10657     10656     10659     10660
     10657     10656     10659     10661     10657     10656     10659     10662
     10658     10656     10659     10660     10658     10656     10659     10661
     10658     10656     10659     10662     10659     10662     10664     10665
     10659     10662     10664     10666     10660     10659     10662     10663
     10660     10659     10662     10664     10661     10659     10662     10663
     10661     10659     10662     10664     10662     10664     10666     10667
     10662     10664     10666     10668     10662     10664     10666     10669
     10663     10662     10664     10665     10663     10662     10664     10666
     10664     10666     10669     10670     10664     10666     10669     10671
     10665     10664     10666     10667     10665     10664     10666     10668
     10665     10664     10666     10669     10666     10669     10671     10672
     10666     10669     10671     10673     10667     10666     10669     10670
     10667     10666     10669     10671     10668     10666     10669     10670
     10668     10666     10669     10671     10669     10671     10673     10674
     10669     10671     10673     10675     10669     10671     10673     10676
     10670     10669     10671     10672     10670     10669     10671     10673
     10671     10673     10676     10677     10671     10673     10676     10678
     10672     10671     10673     10674     10672     10671     10673     10675
     10672     10671     10673     10676     10673     10676     10678     10679
     10673     10676     10678     10680     10674     10673     10676     10677
     10674     10673     10676     10678     10675     10673     10676     10677
     10675     10673     10676     10678     10676     10678     10680     10681
     10676     10678     10680     10682     10676     10678     10680     10683
     10677     10676     10678     10679     10677     10676     10678     10680
     10678     10680     10683     10684     10678     10680     10683     10685
     10679     10678     10680     10681     10679     10678     10680     10682
     10679     10678     10680     10683     10680     10683     10685     10686
     10680     10683     10685     10687     10681     10680     10683     10684
     10681     10680     10683     10685     10682     10680     10683     10684
     10682     10680     10683     10685     10683     10685     10687     10688
     10683     10685     10687     10689     10683     10685     10687     10690
     10684     10683     10685     10686     10684     10683     10685     10687
     10685     10687     10690     10691     10685     10687     10690     10692
     10685     10687     10690     10693     10686     10685     10687     10688
     10686     10685     10687     10689     10686     10685     10687     10690
     10687     10690     10693     10694     10687     10690     10693     10695
     10687     10690     10693     10696     10688     10687     10690     10691
     10688     10687     10690     10692     10688     10687     10690     10693
     10689     10687     10690     10691     10689     10687     10690     10692
     10689     10687     10690     10693     10690     10693     10696     10697
     10690     10693     10696     10698     10690     10693     10696     10699
     10691     10690     10693     10694     10691     10690     10693     10695
     10691     10690     10693     10696     10692     10690     10693     10694
     10692     10690     10693     10695     10692     10690     10693     10696
     10693     10696     10699     10700     10693     10696     10699     10701
     10693     10696     10699     10702     10694     10693     10696     10697
     10694     10693     10696     10698     10694     10693     10696     10699
     10695     10693     10696     10697     10695     10693     10696     10698
     10695     10693     10696     10699     10697     10696     10699     10700
     10697     10696     10699     10701     10697     10696     10699     10702
     10698     10696     10699     10700     10698     10696     10699     10701
     10698     10696     10699     10702     10703     10706     10709     10710
     10703     10706     10709     10711     10703     10706     10709     10712
     10704     10703     10706     10707     10704     10703     10706     10708
     10704     10703     10706     10709     10705     10703     10706     10707
     10705     10703     10706     10708     10705     10703     10706     10709
     10706     10709     10712     10713     10706     10709     10712     10714
     10706     10709     10712     10715     10707     10706     10709     10710
     10707     10706     10709     10711     10707     10706     10709     10712
     10708     10706     10709     10710     10708     10706     10709     10711
     10708     10706     10709     10712     10709     10712     10715     10716
     10709     10712     10715     10717     10709     10712     10715     10718
     10710     10709     10712     10713     10710     10709     10712     10714
     10710     10709     10712     10715     10711     10709     10712     10713
     10711     10709     10712     10714     10711     10709     10712     10715
     10712     10715     10718     10719     10712     10715     10718     10720
     10712     10715     10718     10721     10713     10712     10715     10716
     10713     10712     10715     10717     10713     10712     10715     10718
     10714     10712     10715     10716     10714     10712     10715     10717
     10714     10712     10715     10718     10715     10718     10721     10722
     10715     10718     10721     10723     10715     10718     10721     10724
     10716     10715     10718     10719     10716     10715     10718     10720
     10716     10715     10718     10721     10717     10715     10718     10719
     10717     10715     10718     10720     10717     10715     10718     10721
     10718     10721     10724     10725     10718     10721     10724     10726
     10718     10721     10724     10727     10719     10718     10721     10722
     10719     10718     10721     10723     10719     10718     10721     10724
     10720     10718     10721     10722     10720     10718     10721     10723
     10720     10718     10721     10724     10721     10724     10727     10728
     10721     10724     10727     10729     10721     10724     10727     10730
     10722     10721     10724     10725     10722     10721     10724     10726
     10722     10721     10724     10727     10723     10721     10724     10725
     10723     10721     10724     10726     10723     10721     10724     10727
     10724     10727     10730     10731     10724     10727     10730     10732
     10724     10727     10730     10733     10725     10724     10727     10728
     10725     10724     10727     10729     10725     10724     10727     10730
     10726     10724     10727     10728     10726     10724     10727     10729
     10726     10724     10727     10730     10727     10730     10733     10734
     10727     10730     10733     10735     10727     10730     10733     10736
     10728     10727     10730     10731     10728     10727     10730     10732
     10728     10727     10730     10733     10729     10727     10730     10731
     10729     10727     10730     10732     10729     10727     10730     10733
     10730     10733     10736     10737     10730     10733     10736     10738
     10730     10733     10736     10739     10731     10730     10733     10734
     10731     10730     10733     10735     10731     10730     10733     10736
     10732     10730     10733     10734     10732     10730     10733     10735
     10732     10730     10733     10736     10733     10736     10739     10740
     10733     10736     10739     10741     10733     10736     10739     10742
     10734     10733     10736     10737     10734     10733     10736     10738
     10734     10733     10736     10739     10735     10733     10736     10737
     10735     10733     10736     10738     10735     10733     10736     10739
     10736     10739     10742     10743     10736     10739     10742     10744
     10736     10739     10742     10745     10737     10736     10739     10740
     10737     10736     10739     10741     10737     10736     10739     10742
     10738     10736     10739     10740     10738     10736     10739     10741
     10738     10736     10739     10742     10739     10742     10745     10746
     10739     10742     10745     10747     10739     10742     10745     10748
     10740     10739     10742     10743     10740     10739     10742     10744
     10740     10739     10742     10745     10741     10739     10742     10743
     10741     10739     10742     10744     10741     10739     10742     10745
     10742     10745     10748     10749     10742     10745     10748     10750
     10742     10745     10748     10751     10743     10742     10745     10746
     10743     10742     10745     10747     10743     10742     10745     10748
     10744     10742     10745     10746     10744     10742     10745     10747
     10744     10742     10745     10748     10746     10745     10748     10749
     10746     10745     10748     10750     10746     10745     10748     10751
     10747     10745     10748     10749     10747     10745     10748     10750
     10747     10745     10748     10751     10752     10765     10768     10769
     10752     10765     10768     10770     10752     10765     10768     10774
     10753     10752     10757     10758     10753     10752     10757     10759
     10753     10752     10757     10760     10753     10752     10761     10762
     10753     10752     10761     10763     10753     10752     10761     10764
     10753     10752     10765     10766     10753     10752     10765     10767
     10753     10752     10765     10768     10754     10753     10752     10757
     10754     10753     10752     10761     10754     10753     10752     10765
     10755     10753     10752     10757     10755     10753     10752     10761
     10755     10753     10752     10765     10756     10753     10752     10757
     10756     10753     10752     10761     10756     10753     10752     10765
     10757     10752     10761     10762     10757     10752     10761     10763
     10757     10752     10761     10764     10757     10752     10765     10766
     10757     10752     10765     10767     10757     10752     10765     10768
     10758     10757     10752     10761     10758     10757     10752     10765
     10759     10757     10752     10761     10759     10757     10752     10765
     10760     10757     10752     10761     10760     10757     10752     10765
     10761     10752     10765     10766     10761     10752     10765     10767
     10761     10752     10765     10768     10762     10761     10752     10765
     10763     10761     10752     10765     10764     10761     10752     10765
     10765     10768     10774     10771     10766     10765     10768     10769
     10766     10765     10768     10770     10766     10765     10768     10774
     10767     10765     10768     10769     10767     10765     10768     10770
     10767     10765     10768     10774     10768     10774     10771     10772
     10768     10774     10771     10773     10768     10774     10771     10775
     10769     10768     10774     10771     10770     10768     10774     10771
     10771     10775     10776     10777     10771     10775     10776     10778
     10771     10775     10776     10779     10772     10771     10775     10776
     10773     10771     10775     10776     10774     10771     10775     10776
     10775     10776     10779     10780     10775     10776     10779     10781
     10775     10776     10779     10787     10776     10779     10781     10782
     10776     10779     10787     10788     10776     10779     10787     10789
     10776     10779     10787     10790     10777     10776     10779     10780
     10777     10776     10779     10781     10777     10776     10779     10787
     10778     10776     10779     10780     10778     10776     10779     10781
     10778     10776     10779     10787     10779     10781     10782     10783
     10779     10781     10782     10784     10779     10787     10790     10791
     10780     10779     10781     10782     10780     10779     10787     10788
     10780     10779     10787     10789     10780     10779     10787     10790
     10781     10779     10787     10788     10781     10779     10787     10789
     10781     10779     10787     10790     10781     10782     10784     10785
     10781     10782     10784     10786     10781     10782     10784     10796
     10782     10781     10779     10787     10782     10784     10796     10797
     10782     10784     10796     10798     10782     10784     10796     10799
     10783     10782     10784     10785     10783     10782     10784     10786
     10783     10782     10784     10796     10784     10796     10799     10800
     10784     10796     10799     10801     10784     10796     10799     10802
     10785     10784     10796     10797     10785     10784     10796     10798
     10785     10784     10796     10799     10786     10784     10796     10797
     10786     10784     10796     10798     10786     10784     10796     10799
     10787     10790     10791     10792     10787     10790     10791     10793
     10788     10787     10790     10791     10789     10787     10790     10791
     10790     10791     10793     10794     10790     10791     10793     10795
     10790     10791     10793     10841     10791     10793     10841     10842
     10791     10793     10841     10843     10791     10793     10841     10844
     10792     10791     10793     10794     10792     10791     10793     10795
     10792     10791     10793     10841     10793     10841     10844     10845
     10793     10841     10844     10846     10793     10841     10844     10847
     10794     10793     10841     10842     10794     10793     10841     10843
     10794     10793     10841     10844     10795     10793     10841     10842
     10795     10793     10841     10843     10795     10793     10841     10844
     10796     10799     10802     10803     10796     10799     10802     10804
     10796     10799     10802     10805     10797     10796     10799     10800
     10797     10796     10799     10801     10797     10796     10799     10802
     10798     10796     10799     10800     10798     10796     10799     10801
     10798     10796     10799     10802     10799     10802     10805     10806
     10799     10802     10805     10807     10799     10802     10805     10808
     10800     10799     10802     10803     10800     10799     10802     10804
     10800     10799     10802     10805     10801     10799     10802     10803
     10801     10799     10802     10804     10801     10799     10802     10805
     10802     10805     10808     10809     10802     10805     10808     10810
     10802     10805     10808     10811     10803     10802     10805     10806
     10803     10802     10805     10807     10803     10802     10805     10808
     10804     10802     10805     10806     10804     10802     10805     10807
     10804     10802     10805     10808     10805     10808     10811     10812
     10805     10808     10811     10813     10805     10808     10811     10814
     10806     10805     10808     10809     10806     10805     10808     10810
     10806     10805     10808     10811     10807     10805     10808     10809
     10807     10805     10808     10810     10807     10805     10808     10811
     10808     10811     10814     10815     10808     10811     10814     10816
     10809     10808     10811     10812     10809     10808     10811     10813
     10809     10808     10811     10814     10810     10808     10811     10812
     10810     10808     10811     10813     10810     10808     10811     10814
     10811     10814     10816     10817     10811     10814     10816     10818
     10812     10811     10814     10815     10812     10811     10814     10816
     10813     10811     10814     10815     10813     10811     10814     10816
     10814     10816     10818     10819     10814     10816     10818     10820
     10814     10816     10818     10821     10815     10814     10816     10817
     10815     10814     10816     10818     10816     10818     10821     10822
     10816     10818     10821     10823     10817     10816     10818     10819
     10817     10816     10818     10820     10817     10816     10818     10821
     10818     10821     10823     10824     10818     10821     10823     10825
     10819     10818     10821     10822     10819     10818     10821     10823
     10820     10818     10821     10822     10820     10818     10821     10823
     10821     10823     10825     10826     10821     10823     10825     10827
     10821     10823     10825     10828     10822     10821     10823     10824
     10822     10821     10823     10825     10823     10825     10828     10829
     10823     10825     10828     10830     10823     10825     10828     10831
     10824     10823     10825     10826     10824     10823     10825     10827
     10824     10823     10825     10828     10825     10828     10831     10832
     10825     10828     10831     10833     10825     10828     10831     10834
     10826     10825     10828     10829     10826     10825     10828     10830
     10826     10825     10828     10831     10827     10825     10828     10829
     10827     10825     10828     10830     10827     10825     10828     10831
     10828     10831     10834     10835     10828     10831     10834     10836
     10828     10831     10834     10837     10829     10828     10831     10832
     10829     10828     10831     10833     10829     10828     10831     10834
     10830     10828     10831     10832     10830     10828     10831     10833
     10830     10828     10831     10834     10831     10834     10837     10838
     10831     10834     10837     10839     10831     10834     10837     10840
     10832     10831     10834     10835     10832     10831     10834     10836
     10832     10831     10834     10837     10833     10831     10834     10835
     10833     10831     10834     10836     10833     10831     10834     10837
     10835     10834     10837     10838     10835     10834     10837     10839
     10835     10834     10837     10840     10836     10834     10837     10838
     10836     10834     10837     10839     10836     10834     10837     10840
     10841     10844     10847     10848     10841     10844     10847     10849
     10841     10844     10847     10850     10842     10841     10844     10845
     10842     10841     10844     10846     10842     10841     10844     10847
     10843     10841     10844     10845     10843     10841     10844     10846
     10843     10841     10844     10847     10844     10847     10850     10851
     10844     10847     10850     10852     10844     10847     10850     10853
     10845     10844     10847     10848     10845     10844     10847     10849
     10845     10844     10847     10850     10846     10844     10847     10848
     10846     10844     10847     10849     10846     10844     10847     10850
     10847     10850     10853     10854     10847     10850     10853     10855
     10847     10850     10853     10856     10848     10847     10850     10851
     10848     10847     10850     10852     10848     10847     10850     10853
     10849     10847     10850     10851     10849     10847     10850     10852
     10849     10847     10850     10853     10850     10853     10856     10857
     10850     10853     10856     10858     10850     10853     10856     10859
     10851     10850     10853     10854     10851     10850     10853     10855
     10851     10850     10853     10856     10852     10850     10853     10854
     10852     10850     10853     10855     10852     10850     10853     10856
     10853     10856     10859     10860     10853     10856     10859     10861
     10853     10856     10859     10862     10854     10853     10856     10857
     10854     10853     10856     10858     10854     10853     10856     10859
     10855     10853     10856     10857     10855     10853     10856     10858
     10855     10853     10856     10859     10856     10859     10862     10863
     10856     10859     10862     10864     10856     10859     10862     10865
     10857     10856     10859     10860     10857     10856     10859     10861
     10857     10856     10859     10862     10858     10856     10859     10860
     10858     10856     10859     10861     10858     10856     10859     10862
     10859     10862     10865     10866     10859     10862     10865     10867
     10859     10862     10865     10868     10860     10859     10862     10863
     10860     10859     10862     10864     10860     10859     10862     10865
     10861     10859     10862     10863     10861     10859     10862     10864
     10861     10859     10862     10865     10862     10865     10868     10869
     10862     10865     10868     10870     10862     10865     10868     10871
     10863     10862     10865     10866     10863     10862     10865     10867
     10863     10862     10865     10868     10864     10862     10865     10866
     10864     10862     10865     10867     10864     10862     10865     10868
     10865     10868     10871     10872     10865     10868     10871     10873
     10865     10868     10871     10874     10866     10865     10868     10869
     10866     10865     10868     10870     10866     10865     10868     10871
     10867     10865     10868     10869     10867     10865     10868     10870
     10867     10865     10868     10871     10868     10871     10874     10875
     10868     10871     10874     10876     10868     10871     10874     10877
     10869     10868     10871     10872     10869     10868     10871     10873
     10869     10868     10871     10874     10870     10868     10871     10872
     10870     10868     10871     10873     10870     10868     10871     10874
     10871     10874     10877     10878     10871     10874     10877     10879
     10871     10874     10877     10880     10872     10871     10874     10875
     10872     10871     10874     10876     10872     10871     10874     10877
     10873     10871     10874     10875     10873     10871     10874     10876
     10873     10871     10874     10877     10874     10877     10880     10881
     10874     10877     10880     10882     10874     10877     10880     10883
     10875     10874     10877     10878     10875     10874     10877     10879
     10875     10874     10877     10880     10876     10874     10877     10878
     10876     10874     10877     10879     10876     10874     10877     10880
     10877     10880     10883     10884     10877     10880     10883     10885
     10877     10880     10883     10886     10878     10877     10880     10881
     10878     10877     10880     10882     10878     10877     10880     10883
     10879     10877     10880     10881     10879     10877     10880     10882
     10879     10877     10880     10883     10880     10883     10886     10887
     10880     10883     10886     10888     10880     10883     10886     10889
     10881     10880     10883     10884     10881     10880     10883     10885
     10881     10880     10883     10886     10882     10880     10883     10884
     10882     10880     10883     10885     10882     10880     10883     10886
     10884     10883     10886     10887     10884     10883     10886     10888
     10884     10883     10886     10889     10885     10883     10886     10887
     10885     10883     10886     10888     10885     10883     10886     10889
     10890     10891     10906     10907     10890     10891     10906     10908
     10890     10891     10906     10912     10891     10890     10894     10895
     10891     10890     10894     10896     10891     10890     10894     10897
     10891     10890     10898     10899     10891     10890     10898     10900
     10891     10890     10898     10901     10891     10890     10902     10903
     10891     10890     10902     10904     10891     10890     10902     10905
     10891     10906     10912     10909     10892     10891     10890     10894
     10892     10891     10890     10898     10892     10891     10890     10902
     10892     10891     10906     10907     10892     10891     10906     10908
     10892     10891     10906     10912     10893     10891     10890     10894
     10893     10891     10890     10898     10893     10891     10890     10902
     10893     10891     10906     10907     10893     10891     10906     10908
     10893     10891     10906     10912     10894     10890     10891     10906
     10894     10890     10898     10899     10894     10890     10898     10900
     10894     10890     10898     10901     10894     10890     10902     10903
     10894     10890     10902     10904     10894     10890     10902     10905
     10895     10894     10890     10898     10895     10894     10890     10902
     10896     10894     10890     10898     10896     10894     10890     10902
     10897     10894     10890     10898     10897     10894     10890     10902
     10898     10890     10891     10906     10898     10890     10902     10903
     10898     10890     10902     10904     10898     10890     10902     10905
     10899     10898     10890     10902     10900     10898     10890     10902
     10901     10898     10890     10902     10902     10890     10891     10906
     10906     10912     10909     10910     10906     10912     10909     10911
     10906     10912     10909     10913     10907     10906     10912     10909
     10908     10906     10912     10909     10909     10913     10914     10915
     10909     10913     10914     10916     10909     10913     10914     10917
     10910     10909     10913     10914     10911     10909     10913     10914
     10912     10909     10913     10914     10913     10914     10917     10918
     10913     10914     10917     10919     10913     10914     10917     10925
     10914     10917     10919     10920     10914     10917     10925     10926
     10914     10917     10925     10927     10914     10917     10925     10928
     10915     10914     10917     10918     10915     10914     10917     10919
     10915     10914     10917     10925     10916     10914     10917     10918
     10916     10914     10917     10919     10916     10914     10917     10925
     10917     10919     10920     10921     10917     10919     10920     10922
     10917     10925     10928     10929     10918     10917     10919     10920
     10918     10917     10925     10926     10918     10917     10925     10927
     10918     10917     10925     10928     10919     10917     10925     10926
     10919     10917     10925     10927     10919     10917     10925     10928
     10919     10920     10922     10923     10919     10920     10922     10924
     10919     10920     10922     10934     10920     10919     10917     10925
     10920     10922     10934     10935     10920     10922     10934     10936
     10920     10922     10934     10937     10921     10920     10922     10923
     10921     10920     10922     10924     10921     10920     10922     10934
     10922     10934     10937     10938     10922     10934     10937     10939
     10922     10934     10937     10940     10923     10922     10934     10935
     10923     10922     10934     10936     10923     10922     10934     10937
     10924     10922     10934     10935     10924     10922     10934     10936
     10924     10922     10934     10937     10925     10928     10929     10930
     10925     10928     10929     10931     10926     10925     10928     10929
     10927     10925     10928     10929     10928     10929     10931     10932
     10928     10929     10931     10933     10928     10929     10931     10981
     10929     10931     10981     10982     10929     10931     10981     10983
     10929     10931     10981     10984     10930     10929     10931     10932
     10930     10929     10931     10933     10930     10929     10931     10981
     10931     10981     10984     10985     10931     10981     10984     10986
     10931     10981     10984     10987     10932     10931     10981     10982
     10932     10931     10981     10983     10932     10931     10981     10984
     10933     10931     10981     10982     10933     10931     10981     10983
     10933     10931     10981     10984     10934     10937     10940     10941
     10934     10937     10940     10942     10935     10934     10937     10938
     10935     10934     10937     10939     10935     10934     10937     10940
     10936     10934     10937     10938     10936     10934     10937     10939
     10936     10934     10937     10940     10937     10940     10942     10943
     10937     10940     10942     10944     10938     10937     10940     10941
     10938     10937     10940     10942     10939     10937     10940     10941
     10939     10937     10940     10942     10940     10942     10944     10945
     10940     10942     10944     10946     10940     10942     10944     10947
     10941     10940     10942     10943     10941     10940     10942     10944
     10942     10944     10947     10948     10942     10944     10947     10949
     10943     10942     10944     10945     10943     10942     10944     10946
     10943     10942     10944     10947     10944     10947     10949     10950
     10944     10947     10949     10951     10945     10944     10947     10948
     10945     10944     10947     10949     10946     10944     10947     10948
     10946     10944     10947     10949     10947     10949     10951     10952
     10947     10949     10951     10953     10947     10949     10951     10954
     10948     10947     10949     10950     10948     10947     10949     10951
     10949     10951     10954     10955     10949     10951     10954     10956
     10950     10949     10951     10952     10950     10949     10951     10953
     10950     10949     10951     10954     10951     10954     10956     10957
     10951     10954     10956     10958     10952     10951     10954     10955
     10952     10951     10954     10956     10953     10951     10954     10955
     10953     10951     10954     10956     10954     10956     10958     10959
     10954     10956     10958     10960     10954     10956     10958     10961
     10955     10954     10956     10957     10955     10954     10956     10958
     10956     10958     10961     10962     10956     10958     10961     10963
     10957     10956     10958     10959     10957     10956     10958     10960
     10957     10956     10958     10961     10958     10961     10963     10964
     10958     10961     10963     10965     10959     10958     10961     10962
     10959     10958     10961     10963     10960     10958     10961     10962
     10960     10958     10961     10963     10961     10963     10965     10966
     10961     10963     10965     10967     10961     10963     10965     10968
     10962     10961     10963     10964     10962     10961     10963     10965
     10963     10965     10968     10969     10963     10965     10968     10970
     10963     10965     10968     10971     10964     10963     10965     10966
     10964     10963     10965     10967     10964     10963     10965     10968
     10965     10968     10971     10972     10965     10968     10971     10973
     10965     10968     10971     10974     10966     10965     10968     10969
     10966     10965     10968     10970     10966     10965     10968     10971
     10967     10965     10968     10969     10967     10965     10968     10970
     10967     10965     10968     10971     10968     10971     10974     10975
     10968     10971     10974     10976     10968     10971     10974     10977
     10969     10968     10971     10972     10969     10968     10971     10973
     10969     10968     10971     10974     10970     10968     10971     10972
     10970     10968     10971     10973     10970     10968     10971     10974
     10971     10974     10977     10978     10971     10974     10977     10979
     10971     10974     10977     10980     10972     10971     10974     10975
     10972     10971     10974     10976     10972     10971     10974     10977
     10973     10971     10974     10975     10973     10971     10974     10976
     10973     10971     10974     10977     10975     10974     10977     10978
     10975     10974     10977     10979     10975     10974     10977     10980
     10976     10974     10977     10978     10976     10974     10977     10979
     10976     10974     10977     10980     10981     10984     10987     10988
     10981     10984     10987     10989     10981     10984     10987     10990
     10982     10981     10984     10985     10982     10981     10984     10986
     10982     10981     10984     10987     10983     10981     10984     10985
     10983     10981     10984     10986     10983     10981     10984     10987
     10984     10987     10990     10991     10984     10987     10990     10992
     10984     10987     10990     10993     10985     10984     10987     10988
     10985     10984     10987     10989     10985     10984     10987     10990
     10986     10984     10987     10988     10986     10984     10987     10989
     10986     10984     10987     10990     10987     10990     10993     10994
     10987     10990     10993     10995     10987     10990     10993     10996
     10988     10987     10990     10991     10988     10987     10990     10992
     10988     10987     10990     10993     10989     10987     10990     10991
     10989     10987     10990     10992     10989     10987     10990     10993
     10990     10993     10996     10997     10990     10993     10996     10998
     10990     10993     10996     10999     10991     10990     10993     10994
     10991     10990     10993     10995     10991     10990     10993     10996
     10992     10990     10993     10994     10992     10990     10993     10995
     10992     10990     10993     10996     10993     10996     10999     11000
     10993     10996     10999     11001     10993     10996     10999     11002
     10994     10993     10996     10997     10994     10993     10996     10998
     10994     10993     10996     10999     10995     10993     10996     10997
     10995     10993     10996     10998     10995     10993     10996     10999
     10996     10999     11002     11003     10996     10999     11002     11004
     10996     10999     11002     11005     10997     10996     10999     11000
     10997     10996     10999     11001     10997     10996     10999     11002
     10998     10996     10999     11000     10998     10996     10999     11001
     10998     10996     10999     11002     10999     11002     11005     11006
     10999     11002     11005     11007     10999     11002     11005     11008
     11000     10999     11002     11003     11000     10999     11002     11004
     11000     10999     11002     11005     11001     10999     11002     11003
     11001     10999     11002     11004     11001     10999     11002     11005
     11002     11005     11008     11009     11002     11005     11008     11010
     11002     11005     11008     11011     11003     11002     11005     11006
     11003     11002     11005     11007     11003     11002     11005     11008
     11004     11002     11005     11006     11004     11002     11005     11007
     11004     11002     11005     11008     11005     11008     11011     11012
     11005     11008     11011     11013     11005     11008     11011     11014
     11006     11005     11008     11009     11006     11005     11008     11010
     11006     11005     11008     11011     11007     11005     11008     11009
     11007     11005     11008     11010     11007     11005     11008     11011
     11008     11011     11014     11015     11008     11011     11014     11016
     11008     11011     11014     11017     11009     11008     11011     11012
     11009     11008     11011     11013     11009     11008     11011     11014
     11010     11008     11011     11012     11010     11008     11011     11013
     11010     11008     11011     11014     11011     11014     11017     11018
     11011     11014     11017     11019     11011     11014     11017     11020
     11012     11011     11014     11015     11012     11011     11014     11016
     11012     11011     11014     11017     11013     11011     11014     11015
     11013     11011     11014     11016     11013     11011     11014     11017
     11014     11017     11020     11021     11014     11017     11020     11022
     11014     11017     11020     11023     11015     11014     11017     11018
     11015     11014     11017     11019     11015     11014     11017     11020
     11016     11014     11017     11018     11016     11014     11017     11019
     11016     11014     11017     11020     11017     11020     11023     11024
     11017     11020     11023     11025     11017     11020     11023     11026
     11018     11017     11020     11021     11018     11017     11020     11022
     11018     11017     11020     11023     11019     11017     11020     11021
     11019     11017     11020     11022     11019     11017     11020     11023
     11020     11023     11026     11027     11020     11023     11026     11028
     11020     11023     11026     11029     11021     11020     11023     11024
     11021     11020     11023     11025     11021     11020     11023     11026
     11022     11020     11023     11024     11022     11020     11023     11025
     11022     11020     11023     11026     11024     11023     11026     11027
     11024     11023     11026     11028     11024     11023     11026     11029
     11025     11023     11026     11027     11025     11023     11026     11028
     11025     11023     11026     11029     11030     11043     11046     11047
     11030     11043     11046     11048     11030     11043     11046     11053
     11031     11030     11035     11036     11031     11030     11035     11037
     11031     11030     11035     11038     11031     11030     11039     11040
     11031     11030     11039     11041     11031     11030     11039     11042
     11031     11030     11043     11044     11031     11030     11043     11045
     11031     11030     11043     11046     11032     11031     11030     11035
     11032     11031     11030     11039     11032     11031     11030     11043
     11033     11031     11030     11035     11033     11031     11030     11039
     11033     11031     11030     11043     11034     11031     11030     11035
     11034     11031     11030     11039     11034     11031     11030     11043
     11035     11030     11039     11040     11035     11030     11039     11041
     11035     11030     11039     11042     11035     11030     11043     11044
     11035     11030     11043     11045     11035     11030     11043     11046
     11036     11035     11030     11039     11036     11035     11030     11043
     11037     11035     11030     11039     11037     11035     11030     11043
     11038     11035     11030     11039     11038     11035     11030     11043
     11039     11030     11043     11044     11039     11030     11043     11045
     11039     11030     11043     11046     11040     11039     11030     11043
     11041     11039     11030     11043     11042     11039     11030     11043
     11043     11046     11053     11049     11044     11043     11046     11047
     11044     11043     11046     11048     11044     11043     11046     11053
     11045     11043     11046     11047     11045     11043     11046     11048
     11045     11043     11046     11053     11046     11053     11049     11050
     11046     11053     11049     11051     11046     11053     11049     11052
     11047     11046     11053     11049     11048     11046     11053     11049
     11049     11052     11054     11055     11049     11052     11054     11056
     11049     11052     11054     11059     11050     11049     11052     11054
     11051     11049     11052     11054     11052     11054     11059     11057
     11052     11054     11059     11060     11052     11054     11059     11061
     11053     11049     11052     11054     11054     11059     11057     11058
     11054     11059     11057     11109     11054     11059     11061     11062
     11054     11059     11061     11063     11054     11059     11061     11065
     11055     11054     11059     11057     11055     11054     11059     11060
     11055     11054     11059     11061     11056     11054     11059     11057
     11056     11054     11059     11060     11056     11054     11059     11061
     11057     11059     11061     11062     11057     11059     11061     11063
     11057     11059     11061     11065     11057     11109     11111     11112
     11057     11109     11111     11113     11057     11109     11111     11114
     11058     11057     11059     11060     11058     11057     11059     11061
     11058     11057     11109     11110     11058     11057     11109     11111
     11059     11057     11109     11110     11059     11057     11109     11111
     11059     11061     11063     11064     11059     11061     11065     11066
     11059     11061     11065     11067     11060     11059     11057     11109
     11060     11059     11061     11062     11060     11059     11061     11063
     11060     11059     11061     11065     11061     11059     11057     11109
     11061     11065     11067     11068     11061     11065     11067     11069
     11062     11061     11063     11064     11062     11061     11065     11066
     11062     11061     11065     11067     11063     11061     11065     11066
     11063     11061     11065     11067     11064     11063     11061     11065
     11065     11067     11069     11070     11065     11067     11069     11071
     11065     11067     11069     11072     11066     11065     11067     11068
     11066     11065     11067     11069     11067     11069     11072     11073
     11067     11069     11072     11074     11067     11069     11072     11075
     11068     11067     11069     11070     11068     11067     11069     11071
     11068     11067     11069     11072     11069     11072     11075     11076
     11069     11072     11075     11077     11069     11072     11075     11078
     11070     11069     11072     11073     11070     11069     11072     11074
     11070     11069     11072     11075     11071     11069     11072     11073
     11071     11069     11072     11074     11071     11069     11072     11075
     11072     11075     11078     11079     11072     11075     11078     11080
     11072     11075     11078     11081     11073     11072     11075     11076
     11073     11072     11075     11077     11073     11072     11075     11078
     11074     11072     11075     11076     11074     11072     11075     11077
     11074     11072     11075     11078     11075     11078     11081     11082
     11075     11078     11081     11083     11075     11078     11081     11084
     11076     11075     11078     11079     11076     11075     11078     11080
     11076     11075     11078     11081     11077     11075     11078     11079
     11077     11075     11078     11080     11077     11075     11078     11081
     11078     11081     11084     11085     11078     11081     11084     11086
     11078     11081     11084     11087     11079     11078     11081     11082
     11079     11078     11081     11083     11079     11078     11081     11084
     11080     11078     11081     11082     11080     11078     11081     11083
     11080     11078     11081     11084     11081     11084     11087     11088
     11081     11084     11087     11089     11081     11084     11087     11090
     11082     11081     11084     11085     11082     11081     11084     11086
     11082     11081     11084     11087     11083     11081     11084     11085
     11083     11081     11084     11086     11083     11081     11084     11087
     11084     11087     11090     11091     11084     11087     11090     11092
     11084     11087     11090     11093     11085     11084     11087     11088
     11085     11084     11087     11089     11085     11084     11087     11090
     11086     11084     11087     11088     11086     11084     11087     11089
     11086     11084     11087     11090     11087     11090     11093     11094
     11087     11090     11093     11095     11087     11090     11093     11096
     11088     11087     11090     11091     11088     11087     11090     11092
     11088     11087     11090     11093     11089     11087     11090     11091
     11089     11087     11090     11092     11089     11087     11090     11093
     11090     11093     11096     11097     11090     11093     11096     11098
     11090     11093     11096     11099     11091     11090     11093     11094
     11091     11090     11093     11095     11091     11090     11093     11096
     11092     11090     11093     11094     11092     11090     11093     11095
     11092     11090     11093     11096     11093     11096     11099     11100
     11093     11096     11099     11101     11093     11096     11099     11102
     11094     11093     11096     11097     11094     11093     11096     11098
     11094     11093     11096     11099     11095     11093     11096     11097
     11095     11093     11096     11098     11095     11093     11096     11099
     11096     11099     11102     11103     11096     11099     11102     11104
     11096     11099     11102     11105     11097     11096     11099     11100
     11097     11096     11099     11101     11097     11096     11099     11102
     11098     11096     11099     11100     11098     11096     11099     11101
     11098     11096     11099     11102     11099     11102     11105     11106
     11099     11102     11105     11107     11099     11102     11105     11108
     11100     11099     11102     11103     11100     11099     11102     11104
     11100     11099     11102     11105     11101     11099     11102     11103
     11101     11099     11102     11104     11101     11099     11102     11105
     11103     11102     11105     11106     11103     11102     11105     11107
     11103     11102     11105     11108     11104     11102     11105     11106
     11104     11102     11105     11107     11104     11102     11105     11108
     11109     11111     11114     11115     11109     11111     11114     11116
     11109     11111     11114     11117     11110     11109     11111     11112
     11110     11109     11111     11113     11110     11109     11111     11114
     11111     11114     11117     11118     11111     11114     11117     11119
     11111     11114     11117     11120     11112     11111     11114     11115
     11112     11111     11114     11116     11112     11111     11114     11117
     11113     11111     11114     11115     11113     11111     11114     11116
     11113     11111     11114     11117     11114     11117     11120     11121
     11114     11117     11120     11122     11114     11117     11120     11123
     11115     11114     11117     11118     11115     11114     11117     11119
     11115     11114     11117     11120     11116     11114     11117     11118
     11116     11114     11117     11119     11116     11114     11117     11120
     11117     11120     11123     11124     11117     11120     11123     11125
     11117     11120     11123     11126     11118     11117     11120     11121
     11118     11117     11120     11122     11118     11117     11120     11123
     11119     11117     11120     11121     11119     11117     11120     11122
     11119     11117     11120     11123     11120     11123     11126     11127
     11120     11123     11126     11128     11120     11123     11126     11129
     11121     11120     11123     11124     11121     11120     11123     11125
     11121     11120     11123     11126     11122     11120     11123     11124
     11122     11120     11123     11125     11122     11120     11123     11126
     11123     11126     11129     11130     11123     11126     11129     11131
     11123     11126     11129     11132     11124     11123     11126     11127
     11124     11123     11126     11128     11124     11123     11126     11129
     11125     11123     11126     11127     11125     11123     11126     11128
     11125     11123     11126     11129     11126     11129     11132     11133
     11126     11129     11132     11134     11127     11126     11129     11130
     11127     11126     11129     11131     11127     11126     11129     11132
     11128     11126     11129     11130     11128     11126     11129     11131
     11128     11126     11129     11132     11129     11132     11134     11135
     11129     11132     11134     11136     11130     11129     11132     11133
     11130     11129     11132     11134     11131     11129     11132     11133
     11131     11129     11132     11134     11132     11134     11136     11137
     11132     11134     11136     11138     11132     11134     11136     11139
     11133     11132     11134     11135     11133     11132     11134     11136
     11134     11136     11139     11140     11134     11136     11139     11141
     11134     11136     11139     11142     11135     11134     11136     11137
     11135     11134     11136     11138     11135     11134     11136     11139
     11136     11139     11142     11143     11136     11139     11142     11144
     11136     11139     11142     11145     11137     11136     11139     11140
     11137     11136     11139     11141     11137     11136     11139     11142
     11138     11136     11139     11140     11138     11136     11139     11141
     11138     11136     11139     11142     11139     11142     11145     11146
     11139     11142     11145     11147     11139     11142     11145     11148
     11140     11139     11142     11143     11140     11139     11142     11144
     11140     11139     11142     11145     11141     11139     11142     11143
     11141     11139     11142     11144     11141     11139     11142     11145
     11142     11145     11148     11149     11142     11145     11148     11150
     11142     11145     11148     11151     11143     11142     11145     11146
     11143     11142     11145     11147     11143     11142     11145     11148
     11144     11142     11145     11146     11144     11142     11145     11147
     11144     11142     11145     11148     11145     11148     11151     11152
     11145     11148     11151     11153     11145     11148     11151     11154
     11146     11145     11148     11149     11146     11145     11148     11150
     11146     11145     11148     11151     11147     11145     11148     11149
     11147     11145     11148     11150     11147     11145     11148     11151
     11148     11151     11154     11155     11148     11151     11154     11156
     11148     11151     11154     11157     11149     11148     11151     11152
     11149     11148     11151     11153     11149     11148     11151     11154
     11150     11148     11151     11152     11150     11148     11151     11153
     11150     11148     11151     11154     11151     11154     11157     11158
     11151     11154     11157     11159     11151     11154     11157     11160
     11152     11151     11154     11155     11152     11151     11154     11156
     11152     11151     11154     11157     11153     11151     11154     11155
     11153     11151     11154     11156     11153     11151     11154     11157
     11155     11154     11157     11158     11155     11154     11157     11159
     11155     11154     11157     11160     11156     11154     11157     11158
     11156     11154     11157     11159     11156     11154     11157     11160
     11161     11165     11168     11169     11161     11165     11168     11170
     11161     11165     11168     11174     11162     11161     11165     11166
     11162     11161     11165     11167     11162     11161     11165     11168
     11163     11161     11165     11166     11163     11161     11165     11167
     11163     11161     11165     11168     11164     11161     11165     11166
     11164     11161     11165     11167     11164     11161     11165     11168
     11165     11168     11174     11171     11166     11165     11168     11169
     11166     11165     11168     11170     11166     11165     11168     11174
     11167     11165     11168     11169     11167     11165     11168     11170
     11167     11165     11168     11174     11168     11174     11171     11172
     11168     11174     11171     11173     11168     11174     11171     11175
     11169     11168     11174     11171     11170     11168     11174     11171
     11171     11175     11176     11177     11171     11175     11176     11178
     11171     11175     11176     11179     11172     11171     11175     11176
     11173     11171     11175     11176     11174     11171     11175     11176
     11175     11176     11179     11180     11175     11176     11179     11181
     11175     11176     11179     11187     11176     11179     11181     11182
     11176     11179     11187     11188     11176     11179     11187     11189
     11176     11179     11187     11190     11177     11176     11179     11180
     11177     11176     11179     11181     11177     11176     11179     11187
     11178     11176     11179     11180     11178     11176     11179     11181
     11178     11176     11179     11187     11179     11181     11182     11183
     11179     11181     11182     11184     11179     11187     11190     11191
     11180     11179     11181     11182     11180     11179     11187     11188
     11180     11179     11187     11189     11180     11179     11187     11190
     11181     11179     11187     11188     11181     11179     11187     11189
     11181     11179     11187     11190     11181     11182     11184     11185
     11181     11182     11184     11186     11181     11182     11184     11196
     11182     11181     11179     11187     11182     11184     11196     11197
     11182     11184     11196     11198     11182     11184     11196     11199
     11183     11182     11184     11185     11183     11182     11184     11186
     11183     11182     11184     11196     11184     11196     11199     11200
     11184     11196     11199     11201     11184     11196     11199     11202
     11185     11184     11196     11197     11185     11184     11196     11198
     11185     11184     11196     11199     11186     11184     11196     11197
     11186     11184     11196     11198     11186     11184     11196     11199
     11187     11190     11191     11192     11187     11190     11191     11193
     11188     11187     11190     11191     11189     11187     11190     11191
     11190     11191     11193     11194     11190     11191     11193     11195
     11190     11191     11193     11243     11191     11193     11243     11244
     11191     11193     11243     11245     11191     11193     11243     11246
     11192     11191     11193     11194     11192     11191     11193     11195
     11192     11191     11193     11243     11193     11243     11246     11247
     11193     11243     11246     11248     11193     11243     11246     11249
     11194     11193     11243     11244     11194     11193     11243     11245
     11194     11193     11243     11246     11195     11193     11243     11244
     11195     11193     11243     11245     11195     11193     11243     11246
     11196     11199     11202     11203     11196     11199     11202     11204
     11197     11196     11199     11200     11197     11196     11199     11201
     11197     11196     11199     11202     11198     11196     11199     11200
     11198     11196     11199     11201     11198     11196     11199     11202
     11199     11202     11204     11205     11199     11202     11204     11206
     11200     11199     11202     11203     11200     11199     11202     11204
     11201     11199     11202     11203     11201     11199     11202     11204
     11202     11204     11206     11207     11202     11204     11206     11208
     11202     11204     11206     11209     11203     11202     11204     11205
     11203     11202     11204     11206     11204     11206     11209     11210
     11204     11206     11209     11211     11205     11204     11206     11207
     11205     11204     11206     11208     11205     11204     11206     11209
     11206     11209     11211     11212     11206     11209     11211     11213
     11207     11206     11209     11210     11207     11206     11209     11211
     11208     11206     11209     11210     11208     11206     11209     11211
     11209     11211     11213     11214     11209     11211     11213     11215
     11209     11211     11213     11216     11210     11209     11211     11212
     11210     11209     11211     11213     11211     11213     11216     11217
     11211     11213     11216     11218     11212     11211     11213     11214
     11212     11211     11213     11215     11212     11211     11213     11216
     11213     11216     11218     11219     11213     11216     11218     11220
     11214     11213     11216     11217     11214     11213     11216     11218
     11215     11213     11216     11217     11215     11213     11216     11218
     11216     11218     11220     11221     11216     11218     11220     11222
     11216     11218     11220     11223     11217     11216     11218     11219
     11217     11216     11218     11220     11218     11220     11223     11224
     11218     11220     11223     11225     11219     11218     11220     11221
     11219     11218     11220     11222     11219     11218     11220     11223
     11220     11223     11225     11226     11220     11223     11225     11227
     11221     11220     11223     11224     11221     11220     11223     11225
     11222     11220     11223     11224     11222     11220     11223     11225
     11223     11225     11227     11228     11223     11225     11227     11229
     11223     11225     11227     11230     11224     11223     11225     11226
     11224     11223     11225     11227     11225     11227     11230     11231
     11225     11227     11230     11232     11225     11227     11230     11233
     11226     11225     11227     11228     11226     11225     11227     11229
     11226     11225     11227     11230     11227     11230     11233     11234
     11227     11230     11233     11235     11227     11230     11233     11236
     11228     11227     11230     11231     11228     11227     11230     11232
     11228     11227     11230     11233     11229     11227     11230     11231
     11229     11227     11230     11232     11229     11227     11230     11233
     11230     11233     11236     11237     11230     11233     11236     11238
     11230     11233     11236     11239     11231     11230     11233     11234
     11231     11230     11233     11235     11231     11230     11233     11236
     11232     11230     11233     11234     11232     11230     11233     11235
     11232     11230     11233     11236     11233     11236     11239     11240
     11233     11236     11239     11241     11233     11236     11239     11242
     11234     11233     11236     11237     11234     11233     11236     11238
     11234     11233     11236     11239     11235     11233     11236     11237
     11235     11233     11236     11238     11235     11233     11236     11239
     11237     11236     11239     11240     11237     11236     11239     11241
     11237     11236     11239     11242     11238     11236     11239     11240
     11238     11236     11239     11241     11238     11236     11239     11242
     11243     11246     11249     11250     11243     11246     11249     11251
     11243     11246     11249     11252     11244     11243     11246     11247
     11244     11243     11246     11248     11244     11243     11246     11249
     11245     11243     11246     11247     11245     11243     11246     11248
     11245     11243     11246     11249     11246     11249     11252     11253
     11246     11249     11252     11254     11246     11249     11252     11255
     11247     11246     11249     11250     11247     11246     11249     11251
     11247     11246     11249     11252     11248     11246     11249     11250
     11248     11246     11249     11251     11248     11246     11249     11252
     11249     11252     11255     11256     11249     11252     11255     11257
     11249     11252     11255     11258     11250     11249     11252     11253
     11250     11249     11252     11254     11250     11249     11252     11255
     11251     11249     11252     11253     11251     11249     11252     11254
     11251     11249     11252     11255     11252     11255     11258     11259
     11252     11255     11258     11260     11252     11255     11258     11261
     11253     11252     11255     11256     11253     11252     11255     11257
     11253     11252     11255     11258     11254     11252     11255     11256
     11254     11252     11255     11257     11254     11252     11255     11258
     11255     11258     11261     11262     11255     11258     11261     11263
     11255     11258     11261     11264     11256     11255     11258     11259
     11256     11255     11258     11260     11256     11255     11258     11261
     11257     11255     11258     11259     11257     11255     11258     11260
     11257     11255     11258     11261     11258     11261     11264     11265
     11258     11261     11264     11266     11258     11261     11264     11267
     11259     11258     11261     11262     11259     11258     11261     11263
     11259     11258     11261     11264     11260     11258     11261     11262
     11260     11258     11261     11263     11260     11258     11261     11264
     11261     11264     11267     11268     11261     11264     11267     11269
     11261     11264     11267     11270     11262     11261     11264     11265
     11262     11261     11264     11266     11262     11261     11264     11267
     11263     11261     11264     11265     11263     11261     11264     11266
     11263     11261     11264     11267     11264     11267     11270     11271
     11264     11267     11270     11272     11264     11267     11270     11273
     11265     11264     11267     11268     11265     11264     11267     11269
     11265     11264     11267     11270     11266     11264     11267     11268
     11266     11264     11267     11269     11266     11264     11267     11270
     11267     11270     11273     11274     11267     11270     11273     11275
     11267     11270     11273     11276     11268     11267     11270     11271
     11268     11267     11270     11272     11268     11267     11270     11273
     11269     11267     11270     11271     11269     11267     11270     11272
     11269     11267     11270     11273     11270     11273     11276     11277
     11270     11273     11276     11278     11270     11273     11276     11279
     11271     11270     11273     11274     11271     11270     11273     11275
     11271     11270     11273     11276     11272     11270     11273     11274
     11272     11270     11273     11275     11272     11270     11273     11276
     11273     11276     11279     11280     11273     11276     11279     11281
     11273     11276     11279     11282     11274     11273     11276     11277
     11274     11273     11276     11278     11274     11273     11276     11279
     11275     11273     11276     11277     11275     11273     11276     11278
     11275     11273     11276     11279     11276     11279     11282     11283
     11276     11279     11282     11284     11276     11279     11282     11285
     11277     11276     11279     11280     11277     11276     11279     11281
     11277     11276     11279     11282     11278     11276     11279     11280
     11278     11276     11279     11281     11278     11276     11279     11282
     11279     11282     11285     11286     11279     11282     11285     11287
     11279     11282     11285     11288     11280     11279     11282     11283
     11280     11279     11282     11284     11280     11279     11282     11285
     11281     11279     11282     11283     11281     11279     11282     11284
     11281     11279     11282     11285     11282     11285     11288     11289
     11282     11285     11288     11290     11282     11285     11288     11291
     11283     11282     11285     11286     11283     11282     11285     11287
     11283     11282     11285     11288     11284     11282     11285     11286
     11284     11282     11285     11287     11284     11282     11285     11288
     11286     11285     11288     11289     11286     11285     11288     11290
     11286     11285     11288     11291     11287     11285     11288     11289
     11287     11285     11288     11290     11287     11285     11288     11291
     11292     11296     11299     11300     11292     11296     11299     11301
     11292     11296     11299     11305     11293     11292     11296     11297
     11293     11292     11296     11298     11293     11292     11296     11299
     11294     11292     11296     11297     11294     11292     11296     11298
     11294     11292     11296     11299     11295     11292     11296     11297
     11295     11292     11296     11298     11295     11292     11296     11299
     11296     11299     11305     11302     11297     11296     11299     11300
     11297     11296     11299     11301     11297     11296     11299     11305
     11298     11296     11299     11300     11298     11296     11299     11301
     11298     11296     11299     11305     11299     11305     11302     11303
     11299     11305     11302     11304     11299     11305     11302     11306
     11300     11299     11305     11302     11301     11299     11305     11302
     11302     11306     11307     11308     11302     11306     11307     11309
     11302     11306     11307     11310     11303     11302     11306     11307
     11304     11302     11306     11307     11305     11302     11306     11307
     11306     11307     11310     11311     11306     11307     11310     11312
     11306     11307     11310     11318     11307     11310     11312     11313
     11307     11310     11318     11319     11307     11310     11318     11320
     11307     11310     11318     11321     11308     11307     11310     11311
     11308     11307     11310     11312     11308     11307     11310     11318
     11309     11307     11310     11311     11309     11307     11310     11312
     11309     11307     11310     11318     11310     11312     11313     11314
     11310     11312     11313     11315     11310     11318     11321     11322
     11311     11310     11312     11313     11311     11310     11318     11319
     11311     11310     11318     11320     11311     11310     11318     11321
     11312     11310     11318     11319     11312     11310     11318     11320
     11312     11310     11318     11321     11312     11313     11315     11316
     11312     11313     11315     11317     11312     11313     11315     11327
     11313     11312     11310     11318     11313     11315     11327     11328
     11313     11315     11327     11329     11313     11315     11327     11330
     11314     11313     11315     11316     11314     11313     11315     11317
     11314     11313     11315     11327     11315     11327     11330     11331
     11315     11327     11330     11332     11315     11327     11330     11333
     11316     11315     11327     11328     11316     11315     11327     11329
     11316     11315     11327     11330     11317     11315     11327     11328
     11317     11315     11327     11329     11317     11315     11327     11330
     11318     11321     11322     11323     11318     11321     11322     11324
     11319     11318     11321     11322     11320     11318     11321     11322
     11321     11322     11324     11325     11321     11322     11324     11326
     11321     11322     11324     11374     11322     11324     11374     11375
     11322     11324     11374     11376     11322     11324     11374     11377
     11323     11322     11324     11325     11323     11322     11324     11326
     11323     11322     11324     11374     11324     11374     11377     11378
     11324     11374     11377     11379     11324     11374     11377     11380
     11325     11324     11374     11375     11325     11324     11374     11376
     11325     11324     11374     11377     11326     11324     11374     11375
     11326     11324     11374     11376     11326     11324     11374     11377
     11327     11330     11333     11334     11327     11330     11333     11335
     11328     11327     11330     11331     11328     11327     11330     11332
     11328     11327     11330     11333     11329     11327     11330     11331
     11329     11327     11330     11332     11329     11327     11330     11333
     11330     11333     11335     11336     11330     11333     11335     11337
     11331     11330     11333     11334     11331     11330     11333     11335
     11332     11330     11333     11334     11332     11330     11333     11335
     11333     11335     11337     11338     11333     11335     11337     11339
     11333     11335     11337     11340     11334     11333     11335     11336
     11334     11333     11335     11337     11335     11337     11340     11341
     11335     11337     11340     11342     11336     11335     11337     11338
     11336     11335     11337     11339     11336     11335     11337     11340
     11337     11340     11342     11343     11337     11340     11342     11344
     11338     11337     11340     11341     11338     11337     11340     11342
     11339     11337     11340     11341     11339     11337     11340     11342
     11340     11342     11344     11345     11340     11342     11344     11346
     11340     11342     11344     11347     11341     11340     11342     11343
     11341     11340     11342     11344     11342     11344     11347     11348
     11342     11344     11347     11349     11343     11342     11344     11345
     11343     11342     11344     11346     11343     11342     11344     11347
     11344     11347     11349     11350     11344     11347     11349     11351
     11345     11344     11347     11348     11345     11344     11347     11349
     11346     11344     11347     11348     11346     11344     11347     11349
     11347     11349     11351     11352     11347     11349     11351     11353
     11347     11349     11351     11354     11348     11347     11349     11350
     11348     11347     11349     11351     11349     11351     11354     11355
     11349     11351     11354     11356     11350     11349     11351     11352
     11350     11349     11351     11353     11350     11349     11351     11354
     11351     11354     11356     11357     11351     11354     11356     11358
     11352     11351     11354     11355     11352     11351     11354     11356
     11353     11351     11354     11355     11353     11351     11354     11356
     11354     11356     11358     11359     11354     11356     11358     11360
     11354     11356     11358     11361     11355     11354     11356     11357
     11355     11354     11356     11358     11356     11358     11361     11362
     11356     11358     11361     11363     11356     11358     11361     11364
     11357     11356     11358     11359     11357     11356     11358     11360
     11357     11356     11358     11361     11358     11361     11364     11365
     11358     11361     11364     11366     11358     11361     11364     11367
     11359     11358     11361     11362     11359     11358     11361     11363
     11359     11358     11361     11364     11360     11358     11361     11362
     11360     11358     11361     11363     11360     11358     11361     11364
     11361     11364     11367     11368     11361     11364     11367     11369
     11361     11364     11367     11370     11362     11361     11364     11365
     11362     11361     11364     11366     11362     11361     11364     11367
     11363     11361     11364     11365     11363     11361     11364     11366
     11363     11361     11364     11367     11364     11367     11370     11371
     11364     11367     11370     11372     11364     11367     11370     11373
     11365     11364     11367     11368     11365     11364     11367     11369
     11365     11364     11367     11370     11366     11364     11367     11368
     11366     11364     11367     11369     11366     11364     11367     11370
     11368     11367     11370     11371     11368     11367     11370     11372
     11368     11367     11370     11373     11369     11367     11370     11371
     11369     11367     11370     11372     11369     11367     11370     11373
     11374     11377     11380     11381     11374     11377     11380     11382
     11374     11377     11380     11383     11375     11374     11377     11378
     11375     11374     11377     11379     11375     11374     11377     11380
     11376     11374     11377     11378     11376     11374     11377     11379
     11376     11374     11377     11380     11377     11380     11383     11384
     11377     11380     11383     11385     11377     11380     11383     11386
     11378     11377     11380     11381     11378     11377     11380     11382
     11378     11377     11380     11383     11379     11377     11380     11381
     11379     11377     11380     11382     11379     11377     11380     11383
     11380     11383     11386     11387     11380     11383     11386     11388
     11380     11383     11386     11389     11381     11380     11383     11384
     11381     11380     11383     11385     11381     11380     11383     11386
     11382     11380     11383     11384     11382     11380     11383     11385
     11382     11380     11383     11386     11383     11386     11389     11390
     11383     11386     11389     11391     11383     11386     11389     11392
     11384     11383     11386     11387     11384     11383     11386     11388
     11384     11383     11386     11389     11385     11383     11386     11387
     11385     11383     11386     11388     11385     11383     11386     11389
     11386     11389     11392     11393     11386     11389     11392     11394
     11386     11389     11392     11395     11387     11386     11389     11390
     11387     11386     11389     11391     11387     11386     11389     11392
     11388     11386     11389     11390     11388     11386     11389     11391
     11388     11386     11389     11392     11389     11392     11395     11396
     11389     11392     11395     11397     11389     11392     11395     11398
     11390     11389     11392     11393     11390     11389     11392     11394
     11390     11389     11392     11395     11391     11389     11392     11393
     11391     11389     11392     11394     11391     11389     11392     11395
     11392     11395     11398     11399     11392     11395     11398     11400
     11392     11395     11398     11401     11393     11392     11395     11396
     11393     11392     11395     11397     11393     11392     11395     11398
     11394     11392     11395     11396     11394     11392     11395     11397
     11394     11392     11395     11398     11395     11398     11401     11402
     11395     11398     11401     11403     11395     11398     11401     11404
     11396     11395     11398     11399     11396     11395     11398     11400
     11396     11395     11398     11401     11397     11395     11398     11399
     11397     11395     11398     11400     11397     11395     11398     11401
     11398     11401     11404     11405     11398     11401     11404     11406
     11398     11401     11404     11407     11399     11398     11401     11402
     11399     11398     11401     11403     11399     11398     11401     11404
     11400     11398     11401     11402     11400     11398     11401     11403
     11400     11398     11401     11404     11401     11404     11407     11408
     11401     11404     11407     11409     11401     11404     11407     11410
     11402     11401     11404     11405     11402     11401     11404     11406
     11402     11401     11404     11407     11403     11401     11404     11405
     11403     11401     11404     11406     11403     11401     11404     11407
     11404     11407     11410     11411     11404     11407     11410     11412
     11404     11407     11410     11413     11405     11404     11407     11408
     11405     11404     11407     11409     11405     11404     11407     11410
     11406     11404     11407     11408     11406     11404     11407     11409
     11406     11404     11407     11410     11407     11410     11413     11414
     11407     11410     11413     11415     11407     11410     11413     11416
     11408     11407     11410     11411     11408     11407     11410     11412
     11408     11407     11410     11413     11409     11407     11410     11411
     11409     11407     11410     11412     11409     11407     11410     11413
     11410     11413     11416     11417     11410     11413     11416     11418
     11410     11413     11416     11419     11411     11410     11413     11414
     11411     11410     11413     11415     11411     11410     11413     11416
     11412     11410     11413     11414     11412     11410     11413     11415
     11412     11410     11413     11416     11413     11416     11419     11420
     11413     11416     11419     11421     11413     11416     11419     11422
     11414     11413     11416     11417     11414     11413     11416     11418
     11414     11413     11416     11419     11415     11413     11416     11417
     11415     11413     11416     11418     11415     11413     11416     11419
     11417     11416     11419     11420     11417     11416     11419     11421
     11417     11416     11419     11422     11418     11416     11419     11420
     11418     11416     11419     11421     11418     11416     11419     11422
     11423     11427     11430     11431     11423     11427     11430     11432
     11423     11427     11430     11436     11424     11423     11427     11428
     11424     11423     11427     11429     11424     11423     11427     11430
     11425     11423     11427     11428     11425     11423     11427     11429
     11425     11423     11427     11430     11426     11423     11427     11428
     11426     11423     11427     11429     11426     11423     11427     11430
     11427     11430     11436     11433     11428     11427     11430     11431
     11428     11427     11430     11432     11428     11427     11430     11436
     11429     11427     11430     11431     11429     11427     11430     11432
     11429     11427     11430     11436     11430     11436     11433     11434
     11430     11436     11433     11435     11430     11436     11433     11437
     11431     11430     11436     11433     11432     11430     11436     11433
     11433     11437     11438     11439     11433     11437     11438     11440
     11433     11437     11438     11441     11434     11433     11437     11438
     11435     11433     11437     11438     11436     11433     11437     11438
     11437     11438     11441     11442     11437     11438     11441     11443
     11437     11438     11441     11449     11438     11441     11443     11444
     11438     11441     11449     11450     11438     11441     11449     11451
     11438     11441     11449     11452     11439     11438     11441     11442
     11439     11438     11441     11443     11439     11438     11441     11449
     11440     11438     11441     11442     11440     11438     11441     11443
     11440     11438     11441     11449     11441     11443     11444     11445
     11441     11443     11444     11446     11441     11449     11452     11453
     11442     11441     11443     11444     11442     11441     11449     11450
     11442     11441     11449     11451     11442     11441     11449     11452
     11443     11441     11449     11450     11443     11441     11449     11451
     11443     11441     11449     11452     11443     11444     11446     11447
     11443     11444     11446     11448     11443     11444     11446     11458
     11444     11443     11441     11449     11444     11446     11458     11459
     11444     11446     11458     11460     11444     11446     11458     11461
     11445     11444     11446     11447     11445     11444     11446     11448
     11445     11444     11446     11458     11446     11458     11461     11462
     11446     11458     11461     11463     11446     11458     11461     11464
     11447     11446     11458     11459     11447     11446     11458     11460
     11447     11446     11458     11461     11448     11446     11458     11459
     11448     11446     11458     11460     11448     11446     11458     11461
     11449     11452     11453     11454     11449     11452     11453     11455
     11450     11449     11452     11453     11451     11449     11452     11453
     11452     11453     11455     11456     11452     11453     11455     11457
     11452     11453     11455     11505     11453     11455     11505     11506
     11453     11455     11505     11507     11453     11455     11505     11508
     11454     11453     11455     11456     11454     11453     11455     11457
     11454     11453     11455     11505     11455     11505     11508     11509
     11455     11505     11508     11510     11455     11505     11508     11511
     11456     11455     11505     11506     11456     11455     11505     11507
     11456     11455     11505     11508     11457     11455     11505     11506
     11457     11455     11505     11507     11457     11455     11505     11508
     11458     11461     11464     11465     11458     11461     11464     11466
     11459     11458     11461     11462     11459     11458     11461     11463
     11459     11458     11461     11464     11460     11458     11461     11462
     11460     11458     11461     11463     11460     11458     11461     11464
     11461     11464     11466     11467     11461     11464     11466     11468
     11462     11461     11464     11465     11462     11461     11464     11466
     11463     11461     11464     11465     11463     11461     11464     11466
     11464     11466     11468     11469     11464     11466     11468     11470
     11464     11466     11468     11471     11465     11464     11466     11467
     11465     11464     11466     11468     11466     11468     11471     11472
     11466     11468     11471     11473     11467     11466     11468     11469
     11467     11466     11468     11470     11467     11466     11468     11471
     11468     11471     11473     11474     11468     11471     11473     11475
     11469     11468     11471     11472     11469     11468     11471     11473
     11470     11468     11471     11472     11470     11468     11471     11473
     11471     11473     11475     11476     11471     11473     11475     11477
     11471     11473     11475     11478     11472     11471     11473     11474
     11472     11471     11473     11475     11473     11475     11478     11479
     11473     11475     11478     11480     11474     11473     11475     11476
     11474     11473     11475     11477     11474     11473     11475     11478
     11475     11478     11480     11481     11475     11478     11480     11482
     11476     11475     11478     11479     11476     11475     11478     11480
     11477     11475     11478     11479     11477     11475     11478     11480
     11478     11480     11482     11483     11478     11480     11482     11484
     11478     11480     11482     11485     11479     11478     11480     11481
     11479     11478     11480     11482     11480     11482     11485     11486
     11480     11482     11485     11487     11481     11480     11482     11483
     11481     11480     11482     11484     11481     11480     11482     11485
     11482     11485     11487     11488     11482     11485     11487     11489
     11483     11482     11485     11486     11483     11482     11485     11487
     11484     11482     11485     11486     11484     11482     11485     11487
     11485     11487     11489     11490     11485     11487     11489     11491
     11485     11487     11489     11492     11486     11485     11487     11488
     11486     11485     11487     11489     11487     11489     11492     11493
     11487     11489     11492     11494     11487     11489     11492     11495
     11488     11487     11489     11490     11488     11487     11489     11491
     11488     11487     11489     11492     11489     11492     11495     11496
     11489     11492     11495     11497     11489     11492     11495     11498
     11490     11489     11492     11493     11490     11489     11492     11494
     11490     11489     11492     11495     11491     11489     11492     11493
     11491     11489     11492     11494     11491     11489     11492     11495
     11492     11495     11498     11499     11492     11495     11498     11500
     11492     11495     11498     11501     11493     11492     11495     11496
     11493     11492     11495     11497     11493     11492     11495     11498
     11494     11492     11495     11496     11494     11492     11495     11497
     11494     11492     11495     11498     11495     11498     11501     11502
     11495     11498     11501     11503     11495     11498     11501     11504
     11496     11495     11498     11499     11496     11495     11498     11500
     11496     11495     11498     11501     11497     11495     11498     11499
     11497     11495     11498     11500     11497     11495     11498     11501
     11499     11498     11501     11502     11499     11498     11501     11503
     11499     11498     11501     11504     11500     11498     11501     11502
     11500     11498     11501     11503     11500     11498     11501     11504
     11505     11508     11511     11512     11505     11508     11511     11513
     11505     11508     11511     11514     11506     11505     11508     11509
     11506     11505     11508     11510     11506     11505     11508     11511
     11507     11505     11508     11509     11507     11505     11508     11510
     11507     11505     11508     11511     11508     11511     11514     11515
     11508     11511     11514     11516     11508     11511     11514     11517
     11509     11508     11511     11512     11509     11508     11511     11513
     11509     11508     11511     11514     11510     11508     11511     11512
     11510     11508     11511     11513     11510     11508     11511     11514
     11511     11514     11517     11518     11511     11514     11517     11519
     11511     11514     11517     11520     11512     11511     11514     11515
     11512     11511     11514     11516     11512     11511     11514     11517
     11513     11511     11514     11515     11513     11511     11514     11516
     11513     11511     11514     11517     11514     11517     11520     11521
     11514     11517     11520     11522     11514     11517     11520     11523
     11515     11514     11517     11518     11515     11514     11517     11519
     11515     11514     11517     11520     11516     11514     11517     11518
     11516     11514     11517     11519     11516     11514     11517     11520
     11517     11520     11523     11524     11517     11520     11523     11525
     11517     11520     11523     11526     11518     11517     11520     11521
     11518     11517     11520     11522     11518     11517     11520     11523
     11519     11517     11520     11521     11519     11517     11520     11522
     11519     11517     11520     11523     11520     11523     11526     11527
     11520     11523     11526     11528     11520     11523     11526     11529
     11521     11520     11523     11524     11521     11520     11523     11525
     11521     11520     11523     11526     11522     11520     11523     11524
     11522     11520     11523     11525     11522     11520     11523     11526
     11523     11526     11529     11530     11523     11526     11529     11531
     11523     11526     11529     11532     11524     11523     11526     11527
     11524     11523     11526     11528     11524     11523     11526     11529
     11525     11523     11526     11527     11525     11523     11526     11528
     11525     11523     11526     11529     11526     11529     11532     11533
     11526     11529     11532     11534     11526     11529     11532     11535
     11527     11526     11529     11530     11527     11526     11529     11531
     11527     11526     11529     11532     11528     11526     11529     11530
     11528     11526     11529     11531     11528     11526     11529     11532
     11529     11532     11535     11536     11529     11532     11535     11537
     11529     11532     11535     11538     11530     11529     11532     11533
     11530     11529     11532     11534     11530     11529     11532     11535
     11531     11529     11532     11533     11531     11529     11532     11534
     11531     11529     11532     11535     11532     11535     11538     11539
     11532     11535     11538     11540     11532     11535     11538     11541
     11533     11532     11535     11536     11533     11532     11535     11537
     11533     11532     11535     11538     11534     11532     11535     11536
     11534     11532     11535     11537     11534     11532     11535     11538
     11535     11538     11541     11542     11535     11538     11541     11543
     11535     11538     11541     11544     11536     11535     11538     11539
     11536     11535     11538     11540     11536     11535     11538     11541
     11537     11535     11538     11539     11537     11535     11538     11540
     11537     11535     11538     11541     11538     11541     11544     11545
     11538     11541     11544     11546     11538     11541     11544     11547
     11539     11538     11541     11542     11539     11538     11541     11543
     11539     11538     11541     11544     11540     11538     11541     11542
     11540     11538     11541     11543     11540     11538     11541     11544
     11541     11544     11547     11548     11541     11544     11547     11549
     11541     11544     11547     11550     11542     11541     11544     11545
     11542     11541     11544     11546     11542     11541     11544     11547
     11543     11541     11544     11545     11543     11541     11544     11546
     11543     11541     11544     11547     11544     11547     11550     11551
     11544     11547     11550     11552     11544     11547     11550     11553
     11545     11544     11547     11548     11545     11544     11547     11549
     11545     11544     11547     11550     11546     11544     11547     11548
     11546     11544     11547     11549     11546     11544     11547     11550
     11548     11547     11550     11551     11548     11547     11550     11552
     11548     11547     11550     11553     11549     11547     11550     11551
     11549     11547     11550     11552     11549     11547     11550     11553
     11554     11558     11560     11561     11554     11558     11560     11562
     11554     11558     11563     11564     11554     11558     11563     11565
     11554     11558     11563     11569     11555     11554     11558     11559
     11555     11554     11558     11560     11555     11554     11558     11563
     11556     11554     11558     11559     11556     11554     11558     11560
     11556     11554     11558     11563     11557     11554     11558     11559
     11557     11554     11558     11560     11557     11554     11558     11563
     11558     11563     11569     11566     11559     11558     11560     11561
     11559     11558     11560     11562     11559     11558     11563     11564
     11559     11558     11563     11565     11559     11558     11563     11569
     11560     11558     11563     11564     11560     11558     11563     11565
     11560     11558     11563     11569     11561     11560     11558     11563
     11562     11560     11558     11563     11563     11569     11566     11567
     11563     11569     11566     11568     11563     11569     11566     11570
     11564     11563     11569     11566     11565     11563     11569     11566
     11566     11570     11571     11572     11566     11570     11571     11573
     11566     11570     11571     11574     11567     11566     11570     11571
     11568     11566     11570     11571     11569     11566     11570     11571
     11570     11571     11574     11575     11570     11571     11574     11576
     11570     11571     11574     11582     11571     11574     11576     11577
     11571     11574     11582     11583     11571     11574     11582     11584
     11571     11574     11582     11585     11572     11571     11574     11575
     11572     11571     11574     11576     11572     11571     11574     11582
     11573     11571     11574     11575     11573     11571     11574     11576
     11573     11571     11574     11582     11574     11576     11577     11578
     11574     11576     11577     11579     11574     11582     11585     11586
     11575     11574     11576     11577     11575     11574     11582     11583
     11575     11574     11582     11584     11575     11574     11582     11585
     11576     11574     11582     11583     11576     11574     11582     11584
     11576     11574     11582     11585     11576     11577     11579     11580
     11576     11577     11579     11581     11576     11577     11579     11591
     11577     11576     11574     11582     11577     11579     11591     11592
     11577     11579     11591     11593     11577     11579     11591     11594
     11578     11577     11579     11580     11578     11577     11579     11581
     11578     11577     11579     11591     11579     11591     11594     11595
     11579     11591     11594     11596     11579     11591     11594     11597
     11580     11579     11591     11592     11580     11579     11591     11593
     11580     11579     11591     11594     11581     11579     11591     11592
     11581     11579     11591     11593     11581     11579     11591     11594
     11582     11585     11586     11587     11582     11585     11586     11588
     11583     11582     11585     11586     11584     11582     11585     11586
     11585     11586     11588     11589     11585     11586     11588     11590
     11585     11586     11588     11638     11586     11588     11638     11639
     11586     11588     11638     11640     11586     11588     11638     11641
     11587     11586     11588     11589     11587     11586     11588     11590
     11587     11586     11588     11638     11588     11638     11641     11642
     11588     11638     11641     11643     11588     11638     11641     11644
     11589     11588     11638     11639     11589     11588     11638     11640
     11589     11588     11638     11641     11590     11588     11638     11639
     11590     11588     11638     11640     11590     11588     11638     11641
     11591     11594     11597     11598     11591     11594     11597     11599
     11592     11591     11594     11595     11592     11591     11594     11596
     11592     11591     11594     11597     11593     11591     11594     11595
     11593     11591     11594     11596     11593     11591     11594     11597
     11594     11597     11599     11600     11594     11597     11599     11601
     11595     11594     11597     11598     11595     11594     11597     11599
     11596     11594     11597     11598     11596     11594     11597     11599
     11597     11599     11601     11602     11597     11599     11601     11603
     11597     11599     11601     11604     11598     11597     11599     11600
     11598     11597     11599     11601     11599     11601     11604     11605
     11599     11601     11604     11606     11600     11599     11601     11602
     11600     11599     11601     11603     11600     11599     11601     11604
     11601     11604     11606     11607     11601     11604     11606     11608
     11602     11601     11604     11605     11602     11601     11604     11606
     11603     11601     11604     11605     11603     11601     11604     11606
     11604     11606     11608     11609     11604     11606     11608     11610
     11604     11606     11608     11611     11605     11604     11606     11607
     11605     11604     11606     11608     11606     11608     11611     11612
     11606     11608     11611     11613     11607     11606     11608     11609
     11607     11606     11608     11610     11607     11606     11608     11611
     11608     11611     11613     11614     11608     11611     11613     11615
     11609     11608     11611     11612     11609     11608     11611     11613
     11610     11608     11611     11612     11610     11608     11611     11613
     11611     11613     11615     11616     11611     11613     11615     11617
     11611     11613     11615     11618     11612     11611     11613     11614
     11612     11611     11613     11615     11613     11615     11618     11619
     11613     11615     11618     11620     11614     11613     11615     11616
     11614     11613     11615     11617     11614     11613     11615     11618
     11615     11618     11620     11621     11615     11618     11620     11622
     11616     11615     11618     11619     11616     11615     11618     11620
     11617     11615     11618     11619     11617     11615     11618     11620
     11618     11620     11622     11623     11618     11620     11622     11624
     11618     11620     11622     11625     11619     11618     11620     11621
     11619     11618     11620     11622     11620     11622     11625     11626
     11620     11622     11625     11627     11620     11622     11625     11628
     11621     11620     11622     11623     11621     11620     11622     11624
     11621     11620     11622     11625     11622     11625     11628     11629
     11622     11625     11628     11630     11622     11625     11628     11631
     11623     11622     11625     11626     11623     11622     11625     11627
     11623     11622     11625     11628     11624     11622     11625     11626
     11624     11622     11625     11627     11624     11622     11625     11628
     11625     11628     11631     11632     11625     11628     11631     11633
     11625     11628     11631     11634     11626     11625     11628     11629
     11626     11625     11628     11630     11626     11625     11628     11631
     11627     11625     11628     11629     11627     11625     11628     11630
     11627     11625     11628     11631     11628     11631     11634     11635
     11628     11631     11634     11636     11628     11631     11634     11637
     11629     11628     11631     11632     11629     11628     11631     11633
     11629     11628     11631     11634     11630     11628     11631     11632
     11630     11628     11631     11633     11630     11628     11631     11634
     11632     11631     11634     11635     11632     11631     11634     11636
     11632     11631     11634     11637     11633     11631     11634     11635
     11633     11631     11634     11636     11633     11631     11634     11637
     11638     11641     11644     11645     11638     11641     11644     11646
     11638     11641     11644     11647     11639     11638     11641     11642
     11639     11638     11641     11643     11639     11638     11641     11644
     11640     11638     11641     11642     11640     11638     11641     11643
     11640     11638     11641     11644     11641     11644     11647     11648
     11641     11644     11647     11649     11641     11644     11647     11650
     11642     11641     11644     11645     11642     11641     11644     11646
     11642     11641     11644     11647     11643     11641     11644     11645
     11643     11641     11644     11646     11643     11641     11644     11647
     11644     11647     11650     11651     11644     11647     11650     11652
     11644     11647     11650     11653     11645     11644     11647     11648
     11645     11644     11647     11649     11645     11644     11647     11650
     11646     11644     11647     11648     11646     11644     11647     11649
     11646     11644     11647     11650     11647     11650     11653     11654
     11647     11650     11653     11655     11647     11650     11653     11656
     11648     11647     11650     11651     11648     11647     11650     11652
     11648     11647     11650     11653     11649     11647     11650     11651
     11649     11647     11650     11652     11649     11647     11650     11653
     11650     11653     11656     11657     11650     11653     11656     11658
     11650     11653     11656     11659     11651     11650     11653     11654
     11651     11650     11653     11655     11651     11650     11653     11656
     11652     11650     11653     11654     11652     11650     11653     11655
     11652     11650     11653     11656     11653     11656     11659     11660
     11653     11656     11659     11661     11653     11656     11659     11662
     11654     11653     11656     11657     11654     11653     11656     11658
     11654     11653     11656     11659     11655     11653     11656     11657
     11655     11653     11656     11658     11655     11653     11656     11659
     11656     11659     11662     11663     11656     11659     11662     11664
     11656     11659     11662     11665     11657     11656     11659     11660
     11657     11656     11659     11661     11657     11656     11659     11662
     11658     11656     11659     11660     11658     11656     11659     11661
     11658     11656     11659     11662     11659     11662     11665     11666
     11659     11662     11665     11667     11659     11662     11665     11668
     11660     11659     11662     11663     11660     11659     11662     11664
     11660     11659     11662     11665     11661     11659     11662     11663
     11661     11659     11662     11664     11661     11659     11662     11665
     11662     11665     11668     11669     11662     11665     11668     11670
     11662     11665     11668     11671     11663     11662     11665     11666
     11663     11662     11665     11667     11663     11662     11665     11668
     11664     11662     11665     11666     11664     11662     11665     11667
     11664     11662     11665     11668     11665     11668     11671     11672
     11665     11668     11671     11673     11665     11668     11671     11674
     11666     11665     11668     11669     11666     11665     11668     11670
     11666     11665     11668     11671     11667     11665     11668     11669
     11667     11665     11668     11670     11667     11665     11668     11671
     11668     11671     11674     11675     11668     11671     11674     11676
     11668     11671     11674     11677     11669     11668     11671     11672
     11669     11668     11671     11673     11669     11668     11671     11674
     11670     11668     11671     11672     11670     11668     11671     11673
     11670     11668     11671     11674     11671     11674     11677     11678
     11671     11674     11677     11679     11671     11674     11677     11680
     11672     11671     11674     11675     11672     11671     11674     11676
     11672     11671     11674     11677     11673     11671     11674     11675
     11673     11671     11674     11676     11673     11671     11674     11677
     11674     11677     11680     11681     11674     11677     11680     11682
     11674     11677     11680     11683     11675     11674     11677     11678
     11675     11674     11677     11679     11675     11674     11677     11680
     11676     11674     11677     11678     11676     11674     11677     11679
     11676     11674     11677     11680     11677     11680     11683     11684
     11677     11680     11683     11685     11677     11680     11683     11686
     11678     11677     11680     11681     11678     11677     11680     11682
     11678     11677     11680     11683     11679     11677     11680     11681
     11679     11677     11680     11682     11679     11677     11680     11683
     11681     11680     11683     11684     11681     11680     11683     11685
     11681     11680     11683     11686     11682     11680     11683     11684
     11682     11680     11683     11685     11682     11680     11683     11686
     11687     11700     11703     11704     11687     11700     11703     11705
     11687     11700     11703     11710     11688     11687     11692     11693
     11688     11687     11692     11694     11688     11687     11692     11695
     11688     11687     11696     11697     11688     11687     11696     11698
     11688     11687     11696     11699     11688     11687     11700     11701
     11688     11687     11700     11702     11688     11687     11700     11703
     11689     11688     11687     11692     11689     11688     11687     11696
     11689     11688     11687     11700     11690     11688     11687     11692
     11690     11688     11687     11696     11690     11688     11687     11700
     11691     11688     11687     11692     11691     11688     11687     11696
     11691     11688     11687     11700     11692     11687     11696     11697
     11692     11687     11696     11698     11692     11687     11696     11699
     11692     11687     11700     11701     11692     11687     11700     11702
     11692     11687     11700     11703     11693     11692     11687     11696
     11693     11692     11687     11700     11694     11692     11687     11696
     11694     11692     11687     11700     11695     11692     11687     11696
     11695     11692     11687     11700     11696     11687     11700     11701
     11696     11687     11700     11702     11696     11687     11700     11703
     11697     11696     11687     11700     11698     11696     11687     11700
     11699     11696     11687     11700     11700     11703     11710     11706
     11701     11700     11703     11704     11701     11700     11703     11705
     11701     11700     11703     11710     11702     11700     11703     11704
     11702     11700     11703     11705     11702     11700     11703     11710
     11703     11710     11706     11707     11703     11710     11706     11708
     11703     11710     11706     11709     11704     11703     11710     11706
     11705     11703     11710     11706     11706     11709     11711     11712
     11706     11709     11711     11713     11706     11709     11711     11716
     11707     11706     11709     11711     11708     11706     11709     11711
     11709     11711     11716     11714     11709     11711     11716     11717
     11709     11711     11716     11718     11710     11706     11709     11711
     11711     11716     11714     11715     11711     11716     11714     11766
     11711     11716     11718     11719     11711     11716     11718     11720
     11711     11716     11718     11722     11712     11711     11716     11714
     11712     11711     11716     11717     11712     11711     11716     11718
     11713     11711     11716     11714     11713     11711     11716     11717
     11713     11711     11716     11718     11714     11716     11718     11719
     11714     11716     11718     11720     11714     11716     11718     11722
     11714     11766     11768     11769     11714     11766     11768     11770
     11714     11766     11768     11771     11715     11714     11716     11717
     11715     11714     11716     11718     11715     11714     11766     11767
     11715     11714     11766     11768     11716     11714     11766     11767
     11716     11714     11766     11768     11716     11718     11720     11721
     11716     11718     11722     11723     11716     11718     11722     11724
     11717     11716     11714     11766     11717     11716     11718     11719
     11717     11716     11718     11720     11717     11716     11718     11722
     11718     11716     11714     11766     11718     11722     11724     11725
     11718     11722     11724     11726     11719     11718     11720     11721
     11719     11718     11722     11723     11719     11718     11722     11724
     11720     11718     11722     11723     11720     11718     11722     11724
     11721     11720     11718     11722     11722     11724     11726     11727
     11722     11724     11726     11728     11722     11724     11726     11729
     11723     11722     11724     11725     11723     11722     11724     11726
     11724     11726     11729     11730     11724     11726     11729     11731
     11724     11726     11729     11732     11725     11724     11726     11727
     11725     11724     11726     11728     11725     11724     11726     11729
     11726     11729     11732     11733     11726     11729     11732     11734
     11726     11729     11732     11735     11727     11726     11729     11730
     11727     11726     11729     11731     11727     11726     11729     11732
     11728     11726     11729     11730     11728     11726     11729     11731
     11728     11726     11729     11732     11729     11732     11735     11736
     11729     11732     11735     11737     11729     11732     11735     11738
     11730     11729     11732     11733     11730     11729     11732     11734
     11730     11729     11732     11735     11731     11729     11732     11733
     11731     11729     11732     11734     11731     11729     11732     11735
     11732     11735     11738     11739     11732     11735     11738     11740
     11732     11735     11738     11741     11733     11732     11735     11736
     11733     11732     11735     11737     11733     11732     11735     11738
     11734     11732     11735     11736     11734     11732     11735     11737
     11734     11732     11735     11738     11735     11738     11741     11742
     11735     11738     11741     11743     11735     11738     11741     11744
     11736     11735     11738     11739     11736     11735     11738     11740
     11736     11735     11738     11741     11737     11735     11738     11739
     11737     11735     11738     11740     11737     11735     11738     11741
     11738     11741     11744     11745     11738     11741     11744     11746
     11738     11741     11744     11747     11739     11738     11741     11742
     11739     11738     11741     11743     11739     11738     11741     11744
     11740     11738     11741     11742     11740     11738     11741     11743
     11740     11738     11741     11744     11741     11744     11747     11748
     11741     11744     11747     11749     11741     11744     11747     11750
     11742     11741     11744     11745     11742     11741     11744     11746
     11742     11741     11744     11747     11743     11741     11744     11745
     11743     11741     11744     11746     11743     11741     11744     11747
     11744     11747     11750     11751     11744     11747     11750     11752
     11744     11747     11750     11753     11745     11744     11747     11748
     11745     11744     11747     11749     11745     11744     11747     11750
     11746     11744     11747     11748     11746     11744     11747     11749
     11746     11744     11747     11750     11747     11750     11753     11754
     11747     11750     11753     11755     11747     11750     11753     11756
     11748     11747     11750     11751     11748     11747     11750     11752
     11748     11747     11750     11753     11749     11747     11750     11751
     11749     11747     11750     11752     11749     11747     11750     11753
     11750     11753     11756     11757     11750     11753     11756     11758
     11750     11753     11756     11759     11751     11750     11753     11754
     11751     11750     11753     11755     11751     11750     11753     11756
     11752     11750     11753     11754     11752     11750     11753     11755
     11752     11750     11753     11756     11753     11756     11759     11760
     11753     11756     11759     11761     11753     11756     11759     11762
     11754     11753     11756     11757     11754     11753     11756     11758
     11754     11753     11756     11759     11755     11753     11756     11757
     11755     11753     11756     11758     11755     11753     11756     11759
     11756     11759     11762     11763     11756     11759     11762     11764
     11756     11759     11762     11765     11757     11756     11759     11760
     11757     11756     11759     11761     11757     11756     11759     11762
     11758     11756     11759     11760     11758     11756     11759     11761
     11758     11756     11759     11762     11760     11759     11762     11763
     11760     11759     11762     11764     11760     11759     11762     11765
     11761     11759     11762     11763     11761     11759     11762     11764
     11761     11759     11762     11765     11766     11768     11771     11772
     11766     11768     11771     11773     11766     11768     11771     11774
     11767     11766     11768     11769     11767     11766     11768     11770
     11767     11766     11768     11771     11768     11771     11774     11775
     11768     11771     11774     11776     11768     11771     11774     11777
     11769     11768     11771     11772     11769     11768     11771     11773
     11769     11768     11771     11774     11770     11768     11771     11772
     11770     11768     11771     11773     11770     11768     11771     11774
     11771     11774     11777     11778     11771     11774     11777     11779
     11771     11774     11777     11780     11772     11771     11774     11775
     11772     11771     11774     11776     11772     11771     11774     11777
     11773     11771     11774     11775     11773     11771     11774     11776
     11773     11771     11774     11777     11774     11777     11780     11781
     11774     11777     11780     11782     11774     11777     11780     11783
     11775     11774     11777     11778     11775     11774     11777     11779
     11775     11774     11777     11780     11776     11774     11777     11778
     11776     11774     11777     11779     11776     11774     11777     11780
     11777     11780     11783     11784     11777     11780     11783     11785
     11777     11780     11783     11786     11778     11777     11780     11781
     11778     11777     11780     11782     11778     11777     11780     11783
     11779     11777     11780     11781     11779     11777     11780     11782
     11779     11777     11780     11783     11780     11783     11786     11787
     11780     11783     11786     11788     11780     11783     11786     11789
     11781     11780     11783     11784     11781     11780     11783     11785
     11781     11780     11783     11786     11782     11780     11783     11784
     11782     11780     11783     11785     11782     11780     11783     11786
     11783     11786     11789     11790     11783     11786     11789     11791
     11784     11783     11786     11787     11784     11783     11786     11788
     11784     11783     11786     11789     11785     11783     11786     11787
     11785     11783     11786     11788     11785     11783     11786     11789
     11786     11789     11791     11792     11786     11789     11791     11793
     11787     11786     11789     11790     11787     11786     11789     11791
     11788     11786     11789     11790     11788     11786     11789     11791
     11789     11791     11793     11794     11789     11791     11793     11795
     11789     11791     11793     11796     11790     11789     11791     11792
     11790     11789     11791     11793     11791     11793     11796     11797
     11791     11793     11796     11798     11791     11793     11796     11799
     11792     11791     11793     11794     11792     11791     11793     11795
     11792     11791     11793     11796     11793     11796     11799     11800
     11793     11796     11799     11801     11793     11796     11799     11802
     11794     11793     11796     11797     11794     11793     11796     11798
     11794     11793     11796     11799     11795     11793     11796     11797
     11795     11793     11796     11798     11795     11793     11796     11799
     11796     11799     11802     11803     11796     11799     11802     11804
     11796     11799     11802     11805     11797     11796     11799     11800
     11797     11796     11799     11801     11797     11796     11799     11802
     11798     11796     11799     11800     11798     11796     11799     11801
     11798     11796     11799     11802     11799     11802     11805     11806
     11799     11802     11805     11807     11799     11802     11805     11808
     11800     11799     11802     11803     11800     11799     11802     11804
     11800     11799     11802     11805     11801     11799     11802     11803
     11801     11799     11802     11804     11801     11799     11802     11805
     11802     11805     11808     11809     11802     11805     11808     11810
     11802     11805     11808     11811     11803     11802     11805     11806
     11803     11802     11805     11807     11803     11802     11805     11808
     11804     11802     11805     11806     11804     11802     11805     11807
     11804     11802     11805     11808     11805     11808     11811     11812
     11805     11808     11811     11813     11805     11808     11811     11814
     11806     11805     11808     11809     11806     11805     11808     11810
     11806     11805     11808     11811     11807     11805     11808     11809
     11807     11805     11808     11810     11807     11805     11808     11811
     11808     11811     11814     11815     11808     11811     11814     11816
     11808     11811     11814     11817     11809     11808     11811     11812
     11809     11808     11811     11813     11809     11808     11811     11814
     11810     11808     11811     11812     11810     11808     11811     11813
     11810     11808     11811     11814     11812     11811     11814     11815
     11812     11811     11814     11816     11812     11811     11814     11817
     11813     11811     11814     11815     11813     11811     11814     11816
     11813     11811     11814     11817     11818     11819     11834     11835
     11818     11819     11834     11836     11818     11819     11834     11840
     11819     11818     11822     11823     11819     11818     11822     11824
     11819     11818     11822     11825     11819     11818     11826     11827
     11819     11818     11826     11828     11819     11818     11826     11829
     11819     11818     11830     11831     11819     11818     11830     11832
     11819     11818     11830     11833     11819     11834     11840     11837
     11820     11819     11818     11822     11820     11819     11818     11826
     11820     11819     11818     11830     11820     11819     11834     11835
     11820     11819     11834     11836     11820     11819     11834     11840
     11821     11819     11818     11822     11821     11819     11818     11826
     11821     11819     11818     11830     11821     11819     11834     11835
     11821     11819     11834     11836     11821     11819     11834     11840
     11822     11818     11819     11834     11822     11818     11826     11827
     11822     11818     11826     11828     11822     11818     11826     11829
     11822     11818     11830     11831     11822     11818     11830     11832
     11822     11818     11830     11833     11823     11822     11818     11826
     11823     11822     11818     11830     11824     11822     11818     11826
     11824     11822     11818     11830     11825     11822     11818     11826
     11825     11822     11818     11830     11826     11818     11819     11834
     11826     11818     11830     11831     11826     11818     11830     11832
     11826     11818     11830     11833     11827     11826     11818     11830
     11828     11826     11818     11830     11829     11826     11818     11830
     11830     11818     11819     11834     11834     11840     11837     11838
     11834     11840     11837     11839     11834     11840     11837     11841
     11835     11834     11840     11837     11836     11834     11840     11837
     11837     11841     11842     11843     11837     11841     11842     11844
     11837     11841     11842     11845     11838     11837     11841     11842
     11839     11837     11841     11842     11840     11837     11841     11842
     11841     11842     11845     11846     11841     11842     11845     11847
     11841     11842     11845     11853     11842     11845     11847     11848
     11842     11845     11853     11854     11842     11845     11853     11855
     11842     11845     11853     11856     11843     11842     11845     11846
     11843     11842     11845     11847     11843     11842     11845     11853
     11844     11842     11845     11846     11844     11842     11845     11847
     11844     11842     11845     11853     11845     11847     11848     11849
     11845     11847     11848     11850     11845     11853     11856     11857
     11846     11845     11847     11848     11846     11845     11853     11854
     11846     11845     11853     11855     11846     11845     11853     11856
     11847     11845     11853     11854     11847     11845     11853     11855
     11847     11845     11853     11856     11847     11848     11850     11851
     11847     11848     11850     11852     11847     11848     11850     11862
     11848     11847     11845     11853     11848     11850     11862     11863
     11848     11850     11862     11864     11848     11850     11862     11865
     11849     11848     11850     11851     11849     11848     11850     11852
     11849     11848     11850     11862     11850     11862     11865     11866
     11850     11862     11865     11867     11850     11862     11865     11868
     11851     11850     11862     11863     11851     11850     11862     11864
     11851     11850     11862     11865     11852     11850     11862     11863
     11852     11850     11862     11864     11852     11850     11862     11865
     11853     11856     11857     11858     11853     11856     11857     11859
     11854     11853     11856     11857     11855     11853     11856     11857
     11856     11857     11859     11860     11856     11857     11859     11861
     11856     11857     11859     11909     11857     11859     11909     11910
     11857     11859     11909     11911     11857     11859     11909     11912
     11858     11857     11859     11860     11858     11857     11859     11861
     11858     11857     11859     11909     11859     11909     11912     11913
     11859     11909     11912     11914     11859     11909     11912     11915
     11860     11859     11909     11910     11860     11859     11909     11911
     11860     11859     11909     11912     11861     11859     11909     11910
     11861     11859     11909     11911     11861     11859     11909     11912
     11862     11865     11868     11869     11862     11865     11868     11870
     11862     11865     11868     11871     11863     11862     11865     11866
     11863     11862     11865     11867     11863     11862     11865     11868
     11864     11862     11865     11866     11864     11862     11865     11867
     11864     11862     11865     11868     11865     11868     11871     11872
     11865     11868     11871     11873     11865     11868     11871     11874
     11866     11865     11868     11869     11866     11865     11868     11870
     11866     11865     11868     11871     11867     11865     11868     11869
     11867     11865     11868     11870     11867     11865     11868     11871
     11868     11871     11874     11875     11868     11871     11874     11876
     11868     11871     11874     11877     11869     11868     11871     11872
     11869     11868     11871     11873     11869     11868     11871     11874
     11870     11868     11871     11872     11870     11868     11871     11873
     11870     11868     11871     11874     11871     11874     11877     11878
     11871     11874     11877     11879     11871     11874     11877     11880
     11872     11871     11874     11875     11872     11871     11874     11876
     11872     11871     11874     11877     11873     11871     11874     11875
     11873     11871     11874     11876     11873     11871     11874     11877
     11874     11877     11880     11881     11874     11877     11880     11882
     11875     11874     11877     11878     11875     11874     11877     11879
     11875     11874     11877     11880     11876     11874     11877     11878
     11876     11874     11877     11879     11876     11874     11877     11880
     11877     11880     11882     11883     11877     11880     11882     11884
     11878     11877     11880     11881     11878     11877     11880     11882
     11879     11877     11880     11881     11879     11877     11880     11882
     11880     11882     11884     11885     11880     11882     11884     11886
     11880     11882     11884     11887     11881     11880     11882     11883
     11881     11880     11882     11884     11882     11884     11887     11888
     11882     11884     11887     11889     11882     11884     11887     11890
     11883     11882     11884     11885     11883     11882     11884     11886
     11883     11882     11884     11887     11884     11887     11890     11891
     11884     11887     11890     11892     11884     11887     11890     11893
     11885     11884     11887     11888     11885     11884     11887     11889
     11885     11884     11887     11890     11886     11884     11887     11888
     11886     11884     11887     11889     11886     11884     11887     11890
     11887     11890     11893     11894     11887     11890     11893     11895
     11887     11890     11893     11896     11888     11887     11890     11891
     11888     11887     11890     11892     11888     11887     11890     11893
     11889     11887     11890     11891     11889     11887     11890     11892
     11889     11887     11890     11893     11890     11893     11896     11897
     11890     11893     11896     11898     11890     11893     11896     11899
     11891     11890     11893     11894     11891     11890     11893     11895
     11891     11890     11893     11896     11892     11890     11893     11894
     11892     11890     11893     11895     11892     11890     11893     11896
     11893     11896     11899     11900     11893     11896     11899     11901
     11893     11896     11899     11902     11894     11893     11896     11897
     11894     11893     11896     11898     11894     11893     11896     11899
     11895     11893     11896     11897     11895     11893     11896     11898
     11895     11893     11896     11899     11896     11899     11902     11903
     11896     11899     11902     11904     11896     11899     11902     11905
     11897     11896     11899     11900     11897     11896     11899     11901
     11897     11896     11899     11902     11898     11896     11899     11900
     11898     11896     11899     11901     11898     11896     11899     11902
     11899     11902     11905     11906     11899     11902     11905     11907
     11899     11902     11905     11908     11900     11899     11902     11903
     11900     11899     11902     11904     11900     11899     11902     11905
     11901     11899     11902     11903     11901     11899     11902     11904
     11901     11899     11902     11905     11903     11902     11905     11906
     11903     11902     11905     11907     11903     11902     11905     11908
     11904     11902     11905     11906     11904     11902     11905     11907
     11904     11902     11905     11908     11909     11912     11915     11916
     11909     11912     11915     11917     11909     11912     11915     11918
     11910     11909     11912     11913     11910     11909     11912     11914
     11910     11909     11912     11915     11911     11909     11912     11913
     11911     11909     11912     11914     11911     11909     11912     11915
     11912     11915     11918     11919     11912     11915     11918     11920
     11912     11915     11918     11921     11913     11912     11915     11916
     11913     11912     11915     11917     11913     11912     11915     11918
     11914     11912     11915     11916     11914     11912     11915     11917
     11914     11912     11915     11918     11915     11918     11921     11922
     11915     11918     11921     11923     11915     11918     11921     11924
     11916     11915     11918     11919     11916     11915     11918     11920
     11916     11915     11918     11921     11917     11915     11918     11919
     11917     11915     11918     11920     11917     11915     11918     11921
     11918     11921     11924     11925     11918     11921     11924     11926
     11918     11921     11924     11927     11919     11918     11921     11922
     11919     11918     11921     11923     11919     11918     11921     11924
     11920     11918     11921     11922     11920     11918     11921     11923
     11920     11918     11921     11924     11921     11924     11927     11928
     11921     11924     11927     11929     11921     11924     11927     11930
     11922     11921     11924     11925     11922     11921     11924     11926
     11922     11921     11924     11927     11923     11921     11924     11925
     11923     11921     11924     11926     11923     11921     11924     11927
     11924     11927     11930     11931     11924     11927     11930     11932
     11924     11927     11930     11933     11925     11924     11927     11928
     11925     11924     11927     11929     11925     11924     11927     11930
     11926     11924     11927     11928     11926     11924     11927     11929
     11926     11924     11927     11930     11927     11930     11933     11934
     11927     11930     11933     11935     11927     11930     11933     11936
     11928     11927     11930     11931     11928     11927     11930     11932
     11928     11927     11930     11933     11929     11927     11930     11931
     11929     11927     11930     11932     11929     11927     11930     11933
     11930     11933     11936     11937     11930     11933     11936     11938
     11930     11933     11936     11939     11931     11930     11933     11934
     11931     11930     11933     11935     11931     11930     11933     11936
     11932     11930     11933     11934     11932     11930     11933     11935
     11932     11930     11933     11936     11933     11936     11939     11940
     11933     11936     11939     11941     11933     11936     11939     11942
     11934     11933     11936     11937     11934     11933     11936     11938
     11934     11933     11936     11939     11935     11933     11936     11937
     11935     11933     11936     11938     11935     11933     11936     11939
     11936     11939     11942     11943     11936     11939     11942     11944
     11936     11939     11942     11945     11937     11936     11939     11940
     11937     11936     11939     11941     11937     11936     11939     11942
     11938     11936     11939     11940     11938     11936     11939     11941
     11938     11936     11939     11942     11939     11942     11945     11946
     11939     11942     11945     11947     11939     11942     11945     11948
     11940     11939     11942     11943     11940     11939     11942     11944
     11940     11939     11942     11945     11941     11939     11942     11943
     11941     11939     11942     11944     11941     11939     11942     11945
     11942     11945     11948     11949     11942     11945     11948     11950
     11942     11945     11948     11951     11943     11942     11945     11946
     11943     11942     11945     11947     11943     11942     11945     11948
     11944     11942     11945     11946     11944     11942     11945     11947
     11944     11942     11945     11948     11946     11945     11948     11949
     11946     11945     11948     11950     11946     11945     11948     11951
     11947     11945     11948     11949     11947     11945     11948     11950
     11947     11945     11948     11951     11952     11953     11968     11969
     11952     11953     11968     11970     11952     11953     11968     11974
     11953     11952     11956     11957     11953     11952     11956     11958
     11953     11952     11956     11959     11953     11952     11960     11961
     11953     11952     11960     11962     11953     11952     11960     11963
     11953     11952     11964     11965     11953     11952     11964     11966
     11953     11952     11964     11967     11953     11968     11974     11971
     11954     11953     11952     11956     11954     11953     11952     11960
     11954     11953     11952     11964     11954     11953     11968     11969
     11954     11953     11968     11970     11954     11953     11968     11974
     11955     11953     11952     11956     11955     11953     11952     11960
     11955     11953     11952     11964     11955     11953     11968     11969
     11955     11953     11968     11970     11955     11953     11968     11974
     11956     11952     11953     11968     11956     11952     11960     11961
     11956     11952     11960     11962     11956     11952     11960     11963
     11956     11952     11964     11965     11956     11952     11964     11966
     11956     11952     11964     11967     11957     11956     11952     11960
     11957     11956     11952     11964     11958     11956     11952     11960
     11958     11956     11952     11964     11959     11956     11952     11960
     11959     11956     11952     11964     11960     11952     11953     11968
     11960     11952     11964     11965     11960     11952     11964     11966
     11960     11952     11964     11967     11961     11960     11952     11964
     11962     11960     11952     11964     11963     11960     11952     11964
     11964     11952     11953     11968     11968     11974     11971     11972
     11968     11974     11971     11973     11968     11974     11971     11975
     11969     11968     11974     11971     11970     11968     11974     11971
     11971     11975     11976     11977     11971     11975     11976     11978
     11971     11975     11976     11979     11972     11971     11975     11976
     11973     11971     11975     11976     11974     11971     11975     11976
     11975     11976     11979     11980     11975     11976     11979     11981
     11975     11976     11979     11987     11976     11979     11981     11982
     11976     11979     11987     11988     11976     11979     11987     11989
     11976     11979     11987     11990     11977     11976     11979     11980
     11977     11976     11979     11981     11977     11976     11979     11987
     11978     11976     11979     11980     11978     11976     11979     11981
     11978     11976     11979     11987     11979     11981     11982     11983
     11979     11981     11982     11984     11979     11987     11990     11991
     11980     11979     11981     11982     11980     11979     11987     11988
     11980     11979     11987     11989     11980     11979     11987     11990
     11981     11979     11987     11988     11981     11979     11987     11989
     11981     11979     11987     11990     11981     11982     11984     11985
     11981     11982     11984     11986     11981     11982     11984     11996
     11982     11981     11979     11987     11982     11984     11996     11997
     11982     11984     11996     11998     11982     11984     11996     11999
     11983     11982     11984     11985     11983     11982     11984     11986
     11983     11982     11984     11996     11984     11996     11999     12000
     11984     11996     11999     12001     11984     11996     11999     12002
     11985     11984     11996     11997     11985     11984     11996     11998
     11985     11984     11996     11999     11986     11984     11996     11997
     11986     11984     11996     11998     11986     11984     11996     11999
     11987     11990     11991     11992     11987     11990     11991     11993
     11988     11987     11990     11991     11989     11987     11990     11991
     11990     11991     11993     11994     11990     11991     11993     11995
     11990     11991     11993     12043     11991     11993     12043     12044
     11991     11993     12043     12045     11991     11993     12043     12046
     11992     11991     11993     11994     11992     11991     11993     11995
     11992     11991     11993     12043     11993     12043     12046     12047
     11993     12043     12046     12048     11993     12043     12046     12049
     11994     11993     12043     12044     11994     11993     12043     12045
     11994     11993     12043     12046     11995     11993     12043     12044
     11995     11993     12043     12045     11995     11993     12043     12046
     11996     11999     12002     12003     11996     11999     12002     12004
     11997     11996     11999     12000     11997     11996     11999     12001
     11997     11996     11999     12002     11998     11996     11999     12000
     11998     11996     11999     12001     11998     11996     11999     12002
     11999     12002     12004     12005     11999     12002     12004     12006
     12000     11999     12002     12003     12000     11999     12002     12004
     12001     11999     12002     12003     12001     11999     12002     12004
     12002     12004     12006     12007     12002     12004     12006     12008
     12002     12004     12006     12009     12003     12002     12004     12005
     12003     12002     12004     12006     12004     12006     12009     12010
     12004     12006     12009     12011     12005     12004     12006     12007
     12005     12004     12006     12008     12005     12004     12006     12009
     12006     12009     12011     12012     12006     12009     12011     12013
     12007     12006     12009     12010     12007     12006     12009     12011
     12008     12006     12009     12010     12008     12006     12009     12011
     12009     12011     12013     12014     12009     12011     12013     12015
     12009     12011     12013     12016     12010     12009     12011     12012
     12010     12009     12011     12013     12011     12013     12016     12017
     12011     12013     12016     12018     12012     12011     12013     12014
     12012     12011     12013     12015     12012     12011     12013     12016
     12013     12016     12018     12019     12013     12016     12018     12020
     12014     12013     12016     12017     12014     12013     12016     12018
     12015     12013     12016     12017     12015     12013     12016     12018
     12016     12018     12020     12021     12016     12018     12020     12022
     12016     12018     12020     12023     12017     12016     12018     12019
     12017     12016     12018     12020     12018     12020     12023     12024
     12018     12020     12023     12025     12019     12018     12020     12021
     12019     12018     12020     12022     12019     12018     12020     12023
     12020     12023     12025     12026     12020     12023     12025     12027
     12021     12020     12023     12024     12021     12020     12023     12025
     12022     12020     12023     12024     12022     12020     12023     12025
     12023     12025     12027     12028     12023     12025     12027     12029
     12023     12025     12027     12030     12024     12023     12025     12026
     12024     12023     12025     12027     12025     12027     12030     12031
     12025     12027     12030     12032     12025     12027     12030     12033
     12026     12025     12027     12028     12026     12025     12027     12029
     12026     12025     12027     12030     12027     12030     12033     12034
     12027     12030     12033     12035     12027     12030     12033     12036
     12028     12027     12030     12031     12028     12027     12030     12032
     12028     12027     12030     12033     12029     12027     12030     12031
     12029     12027     12030     12032     12029     12027     12030     12033
     12030     12033     12036     12037     12030     12033     12036     12038
     12030     12033     12036     12039     12031     12030     12033     12034
     12031     12030     12033     12035     12031     12030     12033     12036
     12032     12030     12033     12034     12032     12030     12033     12035
     12032     12030     12033     12036     12033     12036     12039     12040
     12033     12036     12039     12041     12033     12036     12039     12042
     12034     12033     12036     12037     12034     12033     12036     12038
     12034     12033     12036     12039     12035     12033     12036     12037
     12035     12033     12036     12038     12035     12033     12036     12039
     12037     12036     12039     12040     12037     12036     12039     12041
     12037     12036     12039     12042     12038     12036     12039     12040
     12038     12036     12039     12041     12038     12036     12039     12042
     12043     12046     12049     12050     12043     12046     12049     12051
     12043     12046     12049     12052     12044     12043     12046     12047
     12044     12043     12046     12048     12044     12043     12046     12049
     12045     12043     12046     12047     12045     12043     12046     12048
     12045     12043     12046     12049     12046     12049     12052     12053
     12046     12049     12052     12054     12046     12049     12052     12055
     12047     12046     12049     12050     12047     12046     12049     12051
     12047     12046     12049     12052     12048     12046     12049     12050
     12048     12046     12049     12051     12048     12046     12049     12052
     12049     12052     12055     12056     12049     12052     12055     12057
     12049     12052     12055     12058     12050     12049     12052     12053
     12050     12049     12052     12054     12050     12049     12052     12055
     12051     12049     12052     12053     12051     12049     12052     12054
     12051     12049     12052     12055     12052     12055     12058     12059
     12052     12055     12058     12060     12052     12055     12058     12061
     12053     12052     12055     12056     12053     12052     12055     12057
     12053     12052     12055     12058     12054     12052     12055     12056
     12054     12052     12055     12057     12054     12052     12055     12058
     12055     12058     12061     12062     12055     12058     12061     12063
     12055     12058     12061     12064     12056     12055     12058     12059
     12056     12055     12058     12060     12056     12055     12058     12061
     12057     12055     12058     12059     12057     12055     12058     12060
     12057     12055     12058     12061     12058     12061     12064     12065
     12058     12061     12064     12066     12058     12061     12064     12067
     12059     12058     12061     12062     12059     12058     12061     12063
     12059     12058     12061     12064     12060     12058     12061     12062
     12060     12058     12061     12063     12060     12058     12061     12064
     12061     12064     12067     12068     12061     12064     12067     12069
     12061     12064     12067     12070     12062     12061     12064     12065
     12062     12061     12064     12066     12062     12061     12064     12067
     12063     12061     12064     12065     12063     12061     12064     12066
     12063     12061     12064     12067     12064     12067     12070     12071
     12064     12067     12070     12072     12064     12067     12070     12073
     12065     12064     12067     12068     12065     12064     12067     12069
     12065     12064     12067     12070     12066     12064     12067     12068
     12066     12064     12067     12069     12066     12064     12067     12070
     12067     12070     12073     12074     12067     12070     12073     12075
     12067     12070     12073     12076     12068     12067     12070     12071
     12068     12067     12070     12072     12068     12067     12070     12073
     12069     12067     12070     12071     12069     12067     12070     12072
     12069     12067     12070     12073     12070     12073     12076     12077
     12070     12073     12076     12078     12070     12073     12076     12079
     12071     12070     12073     12074     12071     12070     12073     12075
     12071     12070     12073     12076     12072     12070     12073     12074
     12072     12070     12073     12075     12072     12070     12073     12076
     12073     12076     12079     12080     12073     12076     12079     12081
     12073     12076     12079     12082     12074     12073     12076     12077
     12074     12073     12076     12078     12074     12073     12076     12079
     12075     12073     12076     12077     12075     12073     12076     12078
     12075     12073     12076     12079     12076     12079     12082     12083
     12076     12079     12082     12084     12076     12079     12082     12085
     12077     12076     12079     12080     12077     12076     12079     12081
     12077     12076     12079     12082     12078     12076     12079     12080
     12078     12076     12079     12081     12078     12076     12079     12082
     12079     12082     12085     12086     12079     12082     12085     12087
     12079     12082     12085     12088     12080     12079     12082     12083
     12080     12079     12082     12084     12080     12079     12082     12085
     12081     12079     12082     12083     12081     12079     12082     12084
     12081     12079     12082     12085     12082     12085     12088     12089
     12082     12085     12088     12090     12082     12085     12088     12091
     12083     12082     12085     12086     12083     12082     12085     12087
     12083     12082     12085     12088     12084     12082     12085     12086
     12084     12082     12085     12087     12084     12082     12085     12088
     12086     12085     12088     12089     12086     12085     12088     12090
     12086     12085     12088     12091     12087     12085     12088     12089
     12087     12085     12088     12090     12087     12085     12088     12091
     12092     12096     12099     12100     12092     12096     12099     12130
     12092     12138     12135     12130     12092     12138     12135     12136
     12092     12138     12135     12137     12093     12092     12094     12095
     12093     12092     12096     12097     12093     12092     12096     12098
     12093     12092     12096     12099     12093     12092     12138     12135
     12093     12092     12138     12139     12093     12092     12138     12140
     12094     12092     12096     12097     12094     12092     12096     12098
     12094     12092     12096     12099     12094     12092     12138     12135
     12094     12092     12138     12139     12094     12092     12138     12140
     12095     12094     12092     12096     12095     12094     12092     12138
     12096     12092     12138     12135     12096     12092     12138     12139
     12096     12092     12138     12140     12096     12099     12100     12101
     12096     12099     12100     12102     12096     12099     12130     12128
     12096     12099     12130     12131     12096     12099     12130     12135
     12097     12096     12092     12138     12097     12096     12099     12100
     12097     12096     12099     12130     12098     12096     12092     12138
     12098     12096     12099     12100     12098     12096     12099     12130
     12099     12096     12092     12138     12099     12100     12102     12103
     12099     12100     12102     12104     12099     12100     12102     12105
     12099     12130     12128     12105     12099     12130     12128     12125
     12099     12130     12128     12129     12099     12130     12131     12132
     12099     12130     12131     12133     12099     12130     12131     12134
     12099     12130     12135     12136     12099     12130     12135     12137
     12099     12130     12135     12138     12100     12099     12130     12128
     12100     12099     12130     12131     12100     12099     12130     12135
     12100     12102     12105     12106     12100     12102     12105     12107
     12100     12102     12105     12128     12101     12100     12099     12130
     12101     12100     12102     12103     12101     12100     12102     12104
     12101     12100     12102     12105     12102     12100     12099     12130
     12102     12105     12107     12108     12102     12105     12107     12109
     12102     12105     12107     12117     12102     12105     12128     12125
     12102     12105     12128     12129     12102     12105     12128     12130
     12103     12102     12105     12106     12103     12102     12105     12107
     12103     12102     12105     12128     12104     12102     12105     12106
     12104     12102     12105     12107     12104     12102     12105     12128
     12105     12107     12109     12110     12105     12107     12109     12111
     12105     12107     12109     12112     12105     12107     12117     12115
     12105     12107     12117     12118     12105     12107     12117     12122
     12105     12128     12125     12122     12105     12128     12125     12126
     12105     12128     12125     12127     12105     12128     12130     12131
     12105     12128     12130     12135     12106     12105     12107     12108
     12106     12105     12107     12109     12106     12105     12107     12117
     12106     12105     12128     12125     12106     12105     12128     12129
     12106     12105     12128     12130     12107     12105     12128     12125
     12107     12105     12128     12129     12107     12105     12128     12130
     12107     12109     12112     12113     12107     12109     12112     12114
     12107     12109     12112     12115     12107     12117     12115     12112
     12107     12117     12115     12116     12107     12117     12115     12141
     12107     12117     12118     12119     12107     12117     12118     12120
     12107     12117     12118     12121     12107     12117     12122     12123
     12107     12117     12122     12124     12107     12117     12122     12125
     12108     12107     12105     12128     12108     12107     12109     12110
     12108     12107     12109     12111     12108     12107     12109     12112
     12108     12107     12117     12115     12108     12107     12117     12118
     12108     12107     12117     12122     12109     12107     12105     12128
     12109     12107     12117     12115     12109     12107     12117     12118
     12109     12107     12117     12122     12109     12112     12115     12116
     12109     12112     12115     12117     12109     12112     12115     12141
     12110     12109     12107     12117     12110     12109     12112     12113
     12110     12109     12112     12114     12110     12109     12112     12115
     12111     12109     12107     12117     12111     12109     12112     12113
     12111     12109     12112     12114     12111     12109     12112     12115
     12112     12109     12107     12117     12112     12115     12117     12118
     12112     12115     12117     12122     12112     12115     12141     12142
     12112     12115     12141     12143     12112     12115     12141     12147
     12113     12112     12115     12116     12113     12112     12115     12117
     12113     12112     12115     12141     12114     12112     12115     12116
     12114     12112     12115     12117     12114     12112     12115     12141
     12115     12117     12118     12119     12115     12117     12118     12120
     12115     12117     12118     12121     12115     12117     12122     12123
     12115     12117     12122     12124     12115     12117     12122     12125
     12115     12141     12143     12144     12115     12141     12143     12145
     12115     12141     12143     12146     12115     12141     12147     12148
     12115     12141     12147     12149     12115     12141     12147     12150
     12116     12115     12117     12118     12116     12115     12117     12122
     12116     12115     12141     12142     12116     12115     12141     12143
     12116     12115     12141     12147     12117     12107     12105     12128
     12117     12115     12141     12142     12117     12115     12141     12143
     12117     12115     12141     12147     12117     12122     12125     12126
     12117     12122     12125     12127     12117     12122     12125     12128
     12118     12117     12115     12141     12118     12117     12122     12123
     12118     12117     12122     12124     12118     12117     12122     12125
     12119     12118     12117     12122     12120     12118     12117     12122
     12121     12118     12117     12122     12122     12117     12115     12141
     12122     12125     12128     12129     12122     12125     12128     12130
     12123     12122     12125     12126     12123     12122     12125     12127
     12123     12122     12125     12128     12124     12122     12125     12126
     12124     12122     12125     12127     12124     12122     12125     12128
     12125     12128     12130     12131     12125     12128     12130     12135
     12126     12125     12128     12129     12126     12125     12128     12130
     12127     12125     12128     12129     12127     12125     12128     12130
     12128     12130     12131     12132     12128     12130     12131     12133
     12128     12130     12131     12134     12128     12130     12135     12136
     12128     12130     12135     12137     12128     12130     12135     12138
     12129     12128     12130     12131     12129     12128     12130     12135
     12130     12135     12138     12139     12130     12135     12138     12140
     12131     12130     12135     12136     12131     12130     12135     12137
     12131     12130     12135     12138     12132     12131     12130     12135
     12133     12131     12130     12135     12134     12131     12130     12135
     12136     12135     12138     12139     12136     12135     12138     12140
     12137     12135     12138     12139     12137     12135     12138     12140
     12141     12147     12150     12151     12141     12147     12150     12152
     12141     12147     12150     12153     12142     12141     12143     12144
     12142     12141     12143     12145     12142     12141     12143     12146
     12142     12141     12147     12148     12142     12141     12147     12149
     12142     12141     12147     12150     12143     12141     12147     12148
     12143     12141     12147     12149     12143     12141     12147     12150
     12144     12143     12141     12147     12145     12143     12141     12147
     12146     12143     12141     12147     12147     12150     12153     12154
     12147     12150     12153     12155     12147     12150     12153     12156
     12148     12147     12150     12151     12148     12147     12150     12152
     12148     12147     12150     12153     12149     12147     12150     12151
     12149     12147     12150     12152     12149     12147     12150     12153
     12150     12153     12156     12157     12150     12153     12156     12158
     12150     12153     12156     12162     12151     12150     12153     12154
     12151     12150     12153     12155     12151     12150     12153     12156
     12152     12150     12153     12154     12152     12150     12153     12155
     12152     12150     12153     12156     12153     12156     12158     12159
     12153     12156     12158     12160     12153     12156     12158     12161
     12153     12156     12162     12163     12153     12156     12162     12164
     12153     12156     12162     12165     12154     12153     12156     12157
     12154     12153     12156     12158     12154     12153     12156     12162
     12155     12153     12156     12157     12155     12153     12156     12158
     12155     12153     12156     12162     12157     12156     12158     12159
     12157     12156     12158     12160     12157     12156     12158     12161
     12157     12156     12162     12163     12157     12156     12162     12164
     12157     12156     12162     12165     12158     12156     12162     12163
     12158     12156     12162     12164     12158     12156     12162     12165
     12159     12158     12156     12162     12160     12158     12156     12162
     12161     12158     12156     12162     12166     12170     12173     12174
     12166     12170     12173     12204     12166     12212     12209     12204
     12166     12212     12209     12210     12166     12212     12209     12211
     12167     12166     12168     12169     12167     12166     12170     12171
     12167     12166     12170     12172     12167     12166     12170     12173
     12167     12166     12212     12209     12167     12166     12212     12213
     12167     12166     12212     12214     12168     12166     12170     12171
     12168     12166     12170     12172     12168     12166     12170     12173
     12168     12166     12212     12209     12168     12166     12212     12213
     12168     12166     12212     12214     12169     12168     12166     12170
     12169     12168     12166     12212     12170     12166     12212     12209
     12170     12166     12212     12213     12170     12166     12212     12214
     12170     12173     12174     12175     12170     12173     12174     12176
     12170     12173     12204     12202     12170     12173     12204     12205
     12170     12173     12204     12209     12171     12170     12166     12212
     12171     12170     12173     12174     12171     12170     12173     12204
     12172     12170     12166     12212     12172     12170     12173     12174
     12172     12170     12173     12204     12173     12170     12166     12212
     12173     12174     12176     12177     12173     12174     12176     12178
     12173     12174     12176     12179     12173     12204     12202     12179
     12173     12204     12202     12199     12173     12204     12202     12203
     12173     12204     12205     12206     12173     12204     12205     12207
     12173     12204     12205     12208     12173     12204     12209     12210
     12173     12204     12209     12211     12173     12204     12209     12212
     12174     12173     12204     12202     12174     12173     12204     12205
     12174     12173     12204     12209     12174     12176     12179     12180
     12174     12176     12179     12181     12174     12176     12179     12202
     12175     12174     12173     12204     12175     12174     12176     12177
     12175     12174     12176     12178     12175     12174     12176     12179
     12176     12174     12173     12204     12176     12179     12181     12182
     12176     12179     12181     12183     12176     12179     12181     12191
     12176     12179     12202     12199     12176     12179     12202     12203
     12176     12179     12202     12204     12177     12176     12179     12180
     12177     12176     12179     12181     12177     12176     12179     12202
     12178     12176     12179     12180     12178     12176     12179     12181
     12178     12176     12179     12202     12179     12181     12183     12184
     12179     12181     12183     12185     12179     12181     12183     12186
     12179     12181     12191     12189     12179     12181     12191     12192
     12179     12181     12191     12196     12179     12202     12199     12196
     12179     12202     12199     12200     12179     12202     12199     12201
     12179     12202     12204     12205     12179     12202     12204     12209
     12180     12179     12181     12182     12180     12179     12181     12183
     12180     12179     12181     12191     12180     12179     12202     12199
     12180     12179     12202     12203     12180     12179     12202     12204
     12181     12179     12202     12199     12181     12179     12202     12203
     12181     12179     12202     12204     12181     12183     12186     12187
     12181     12183     12186     12188     12181     12183     12186     12189
     12181     12191     12189     12186     12181     12191     12189     12190
     12181     12191     12189     12215     12181     12191     12192     12193
     12181     12191     12192     12194     12181     12191     12192     12195
     12181     12191     12196     12197     12181     12191     12196     12198
     12181     12191     12196     12199     12182     12181     12179     12202
     12182     12181     12183     12184     12182     12181     12183     12185
     12182     12181     12183     12186     12182     12181     12191     12189
     12182     12181     12191     12192     12182     12181     12191     12196
     12183     12181     12179     12202     12183     12181     12191     12189
     12183     12181     12191     12192     12183     12181     12191     12196
     12183     12186     12189     12190     12183     12186     12189     12191
     12183     12186     12189     12215     12184     12183     12181     12191
     12184     12183     12186     12187     12184     12183     12186     12188
     12184     12183     12186     12189     12185     12183     12181     12191
     12185     12183     12186     12187     12185     12183     12186     12188
     12185     12183     12186     12189     12186     12183     12181     12191
     12186     12189     12191     12192     12186     12189     12191     12196
     12186     12189     12215     12216     12186     12189     12215     12217
     12186     12189     12215     12221     12187     12186     12189     12190
     12187     12186     12189     12191     12187     12186     12189     12215
     12188     12186     12189     12190     12188     12186     12189     12191
     12188     12186     12189     12215     12189     12191     12192     12193
     12189     12191     12192     12194     12189     12191     12192     12195
     12189     12191     12196     12197     12189     12191     12196     12198
     12189     12191     12196     12199     12189     12215     12217     12218
     12189     12215     12217     12219     12189     12215     12217     12220
     12189     12215     12221     12222     12189     12215     12221     12223
     12189     12215     12221     12224     12190     12189     12191     12192
     12190     12189     12191     12196     12190     12189     12215     12216
     12190     12189     12215     12217     12190     12189     12215     12221
     12191     12181     12179     12202     12191     12189     12215     12216
     12191     12189     12215     12217     12191     12189     12215     12221
     12191     12196     12199     12200     12191     12196     12199     12201
     12191     12196     12199     12202     12192     12191     12189     12215
     12192     12191     12196     12197     12192     12191     12196     12198
     12192     12191     12196     12199     12193     12192     12191     12196
     12194     12192     12191     12196     12195     12192     12191     12196
     12196     12191     12189     12215     12196     12199     12202     12203
     12196     12199     12202     12204     12197     12196     12199     12200
     12197     12196     12199     12201     12197     12196     12199     12202
     12198     12196     12199     12200     12198     12196     12199     12201
     12198     12196     12199     12202     12199     12202     12204     12205
     12199     12202     12204     12209     12200     12199     12202     12203
     12200     12199     12202     12204     12201     12199     12202     12203
     12201     12199     12202     12204     12202     12204     12205     12206
     12202     12204     12205     12207     12202     12204     12205     12208
     12202     12204     12209     12210     12202     12204     12209     12211
     12202     12204     12209     12212     12203     12202     12204     12205
     12203     12202     12204     12209     12204     12209     12212     12213
     12204     12209     12212     12214     12205     12204     12209     12210
     12205     12204     12209     12211     12205     12204     12209     12212
     12206     12205     12204     12209     12207     12205     12204     12209
     12208     12205     12204     12209     12210     12209     12212     12213
     12210     12209     12212     12214     12211     12209     12212     12213
     12211     12209     12212     12214     12215     12221     12224     12225
     12215     12221     12224     12226     12215     12221     12224     12227
     12216     12215     12217     12218     12216     12215     12217     12219
     12216     12215     12217     12220     12216     12215     12221     12222
     12216     12215     12221     12223     12216     12215     12221     12224
     12217     12215     12221     12222     12217     12215     12221     12223
     12217     12215     12221     12224     12218     12217     12215     12221
     12219     12217     12215     12221     12220     12217     12215     12221
     12221     12224     12227     12228     12221     12224     12227     12229
     12221     12224     12227     12230     12222     12221     12224     12225
     12222     12221     12224     12226     12222     12221     12224     12227
     12223     12221     12224     12225     12223     12221     12224     12226
     12223     12221     12224     12227     12224     12227     12230     12231
     12224     12227     12230     12232     12224     12227     12230     12236
     12225     12224     12227     12228     12225     12224     12227     12229
     12225     12224     12227     12230     12226     12224     12227     12228
     12226     12224     12227     12229     12226     12224     12227     12230
     12227     12230     12232     12233     12227     12230     12232     12234
     12227     12230     12232     12235     12227     12230     12236     12237
     12227     12230     12236     12238     12227     12230     12236     12239
     12228     12227     12230     12231     12228     12227     12230     12232
     12228     12227     12230     12236     12229     12227     12230     12231
     12229     12227     12230     12232     12229     12227     12230     12236
     12231     12230     12232     12233     12231     12230     12232     12234
     12231     12230     12232     12235     12231     12230     12236     12237
     12231     12230     12236     12238     12231     12230     12236     12239
     12232     12230     12236     12237     12232     12230     12236     12238
     12232     12230     12236     12239     12233     12232     12230     12236
     12234     12232     12230     12236     12235     12232     12230     12236
     12240     12253     12256     12257     12240     12253     12256     12258
     12240     12253     12256     12262     12241     12240     12245     12246
     12241     12240     12245     12247     12241     12240     12245     12248
     12241     12240     12249     12250     12241     12240     12249     12251
     12241     12240     12249     12252     12241     12240     12253     12254
     12241     12240     12253     12255     12241     12240     12253     12256
     12242     12241     12240     12245     12242     12241     12240     12249
     12242     12241     12240     12253     12243     12241     12240     12245
     12243     12241     12240     12249     12243     12241     12240     12253
     12244     12241     12240     12245     12244     12241     12240     12249
     12244     12241     12240     12253     12245     12240     12249     12250
     12245     12240     12249     12251     12245     12240     12249     12252
     12245     12240     12253     12254     12245     12240     12253     12255
     12245     12240     12253     12256     12246     12245     12240     12249
     12246     12245     12240     12253     12247     12245     12240     12249
     12247     12245     12240     12253     12248     12245     12240     12249
     12248     12245     12240     12253     12249     12240     12253     12254
     12249     12240     12253     12255     12249     12240     12253     12256
     12250     12249     12240     12253     12251     12249     12240     12253
     12252     12249     12240     12253     12253     12256     12262     12259
     12254     12253     12256     12257     12254     12253     12256     12258
     12254     12253     12256     12262     12255     12253     12256     12257
     12255     12253     12256     12258     12255     12253     12256     12262
     12256     12262     12259     12260     12256     12262     12259     12261
     12256     12262     12259     12263     12257     12256     12262     12259
     12258     12256     12262     12259     12259     12263     12264     12265
     12259     12263     12264     12266     12259     12263     12264     12267
     12260     12259     12263     12264     12261     12259     12263     12264
     12262     12259     12263     12264     12263     12264     12267     12268
     12263     12264     12267     12269     12263     12264     12267     12275
     12264     12267     12269     12270     12264     12267     12275     12276
     12264     12267     12275     12277     12264     12267     12275     12278
     12265     12264     12267     12268     12265     12264     12267     12269
     12265     12264     12267     12275     12266     12264     12267     12268
     12266     12264     12267     12269     12266     12264     12267     12275
     12267     12269     12270     12271     12267     12269     12270     12272
     12267     12275     12278     12279     12268     12267     12269     12270
     12268     12267     12275     12276     12268     12267     12275     12277
     12268     12267     12275     12278     12269     12267     12275     12276
     12269     12267     12275     12277     12269     12267     12275     12278
     12269     12270     12272     12273     12269     12270     12272     12274
     12269     12270     12272     12284     12270     12269     12267     12275
     12270     12272     12284     12285     12270     12272     12284     12286
     12270     12272     12284     12287     12271     12270     12272     12273
     12271     12270     12272     12274     12271     12270     12272     12284
     12272     12284     12287     12288     12272     12284     12287     12289
     12272     12284     12287     12290     12273     12272     12284     12285
     12273     12272     12284     12286     12273     12272     12284     12287
     12274     12272     12284     12285     12274     12272     12284     12286
     12274     12272     12284     12287     12275     12278     12279     12280
     12275     12278     12279     12281     12276     12275     12278     12279
     12277     12275     12278     12279     12278     12279     12281     12282
     12278     12279     12281     12283     12278     12279     12281     12329
     12279     12281     12329     12330     12279     12281     12329     12331
     12279     12281     12329     12332     12280     12279     12281     12282
     12280     12279     12281     12283     12280     12279     12281     12329
     12281     12329     12332     12333     12281     12329     12332     12334
     12281     12329     12332     12335     12282     12281     12329     12330
     12282     12281     12329     12331     12282     12281     12329     12332
     12283     12281     12329     12330     12283     12281     12329     12331
     12283     12281     12329     12332     12284     12287     12290     12291
     12284     12287     12290     12292     12284     12287     12290     12293
     12285     12284     12287     12288     12285     12284     12287     12289
     12285     12284     12287     12290     12286     12284     12287     12288
     12286     12284     12287     12289     12286     12284     12287     12290
     12287     12290     12293     12294     12287     12290     12293     12295
     12287     12290     12293     12296     12288     12287     12290     12291
     12288     12287     12290     12292     12288     12287     12290     12293
     12289     12287     12290     12291     12289     12287     12290     12292
     12289     12287     12290     12293     12290     12293     12296     12297
     12290     12293     12296     12298     12290     12293     12296     12299
     12291     12290     12293     12294     12291     12290     12293     12295
     12291     12290     12293     12296     12292     12290     12293     12294
     12292     12290     12293     12295     12292     12290     12293     12296
     12293     12296     12299     12300     12293     12296     12299     12301
     12293     12296     12299     12302     12294     12293     12296     12297
     12294     12293     12296     12298     12294     12293     12296     12299
     12295     12293     12296     12297     12295     12293     12296     12298
     12295     12293     12296     12299     12296     12299     12302     12303
     12296     12299     12302     12304     12297     12296     12299     12300
     12297     12296     12299     12301     12297     12296     12299     12302
     12298     12296     12299     12300     12298     12296     12299     12301
     12298     12296     12299     12302     12299     12302     12304     12305
     12299     12302     12304     12306     12300     12299     12302     12303
     12300     12299     12302     12304     12301     12299     12302     12303
     12301     12299     12302     12304     12302     12304     12306     12307
     12302     12304     12306     12308     12302     12304     12306     12309
     12303     12302     12304     12305     12303     12302     12304     12306
     12304     12306     12309     12310     12304     12306     12309     12311
     12305     12304     12306     12307     12305     12304     12306     12308
     12305     12304     12306     12309     12306     12309     12311     12312
     12306     12309     12311     12313     12307     12306     12309     12310
     12307     12306     12309     12311     12308     12306     12309     12310
     12308     12306     12309     12311     12309     12311     12313     12314
     12309     12311     12313     12315     12309     12311     12313     12316
     12310     12309     12311     12312     12310     12309     12311     12313
     12311     12313     12316     12317     12311     12313     12316     12318
     12311     12313     12316     12319     12312     12311     12313     12314
     12312     12311     12313     12315     12312     12311     12313     12316
     12313     12316     12319     12320     12313     12316     12319     12321
     12313     12316     12319     12322     12314     12313     12316     12317
     12314     12313     12316     12318     12314     12313     12316     12319
     12315     12313     12316     12317     12315     12313     12316     12318
     12315     12313     12316     12319     12316     12319     12322     12323
     12316     12319     12322     12324     12316     12319     12322     12325
     12317     12316     12319     12320     12317     12316     12319     12321
     12317     12316     12319     12322     12318     12316     12319     12320
     12318     12316     12319     12321     12318     12316     12319     12322
     12319     12322     12325     12326     12319     12322     12325     12327
     12319     12322     12325     12328     12320     12319     12322     12323
     12320     12319     12322     12324     12320     12319     12322     12325
     12321     12319     12322     12323     12321     12319     12322     12324
     12321     12319     12322     12325     12323     12322     12325     12326
     12323     12322     12325     12327     12323     12322     12325     12328
     12324     12322     12325     12326     12324     12322     12325     12327
     12324     12322     12325     12328     12329     12332     12335     12336
     12329     12332     12335     12337     12329     12332     12335     12338
     12330     12329     12332     12333     12330     12329     12332     12334
     12330     12329     12332     12335     12331     12329     12332     12333
     12331     12329     12332     12334     12331     12329     12332     12335
     12332     12335     12338     12339     12332     12335     12338     12340
     12332     12335     12338     12341     12333     12332     12335     12336
     12333     12332     12335     12337     12333     12332     12335     12338
     12334     12332     12335     12336     12334     12332     12335     12337
     12334     12332     12335     12338     12335     12338     12341     12342
     12335     12338     12341     12343     12335     12338     12341     12344
     12336     12335     12338     12339     12336     12335     12338     12340
     12336     12335     12338     12341     12337     12335     12338     12339
     12337     12335     12338     12340     12337     12335     12338     12341
     12338     12341     12344     12345     12338     12341     12344     12346
     12338     12341     12344     12347     12339     12338     12341     12342
     12339     12338     12341     12343     12339     12338     12341     12344
     12340     12338     12341     12342     12340     12338     12341     12343
     12340     12338     12341     12344     12341     12344     12347     12348
     12341     12344     12347     12349     12341     12344     12347     12350
     12342     12341     12344     12345     12342     12341     12344     12346
     12342     12341     12344     12347     12343     12341     12344     12345
     12343     12341     12344     12346     12343     12341     12344     12347
     12344     12347     12350     12351     12344     12347     12350     12352
     12344     12347     12350     12353     12345     12344     12347     12348
     12345     12344     12347     12349     12345     12344     12347     12350
     12346     12344     12347     12348     12346     12344     12347     12349
     12346     12344     12347     12350     12347     12350     12353     12354
     12347     12350     12353     12355     12347     12350     12353     12356
     12348     12347     12350     12351     12348     12347     12350     12352
     12348     12347     12350     12353     12349     12347     12350     12351
     12349     12347     12350     12352     12349     12347     12350     12353
     12350     12353     12356     12357     12350     12353     12356     12358
     12350     12353     12356     12359     12351     12350     12353     12354
     12351     12350     12353     12355     12351     12350     12353     12356
     12352     12350     12353     12354     12352     12350     12353     12355
     12352     12350     12353     12356     12353     12356     12359     12360
     12353     12356     12359     12361     12353     12356     12359     12362
     12354     12353     12356     12357     12354     12353     12356     12358
     12354     12353     12356     12359     12355     12353     12356     12357
     12355     12353     12356     12358     12355     12353     12356     12359
     12356     12359     12362     12363     12356     12359     12362     12364
     12356     12359     12362     12365     12357     12356     12359     12360
     12357     12356     12359     12361     12357     12356     12359     12362
     12358     12356     12359     12360     12358     12356     12359     12361
     12358     12356     12359     12362     12359     12362     12365     12366
     12359     12362     12365     12367     12359     12362     12365     12368
     12360     12359     12362     12363     12360     12359     12362     12364
     12360     12359     12362     12365     12361     12359     12362     12363
     12361     12359     12362     12364     12361     12359     12362     12365
     12362     12365     12368     12369     12362     12365     12368     12370
     12362     12365     12368     12371     12363     12362     12365     12366
     12363     12362     12365     12367     12363     12362     12365     12368
     12364     12362     12365     12366     12364     12362     12365     12367
     12364     12362     12365     12368     12365     12368     12371     12372
     12365     12368     12371     12373     12365     12368     12371     12374
     12366     12365     12368     12369     12366     12365     12368     12370
     12366     12365     12368     12371     12367     12365     12368     12369
     12367     12365     12368     12370     12367     12365     12368     12371
     12368     12371     12374     12375     12368     12371     12374     12376
     12368     12371     12374     12377     12369     12368     12371     12372
     12369     12368     12371     12373     12369     12368     12371     12374
     12370     12368     12371     12372     12370     12368     12371     12373
     12370     12368     12371     12374     12372     12371     12374     12375
     12372     12371     12374     12376     12372     12371     12374     12377
     12373     12371     12374     12375     12373     12371     12374     12376
     12373     12371     12374     12377     12378     12382     12385     12386
     12378     12382     12385     12416     12378     12424     12421     12416
     12378     12424     12421     12422     12378     12424     12421     12423
     12379     12378     12380     12381     12379     12378     12382     12383
     12379     12378     12382     12384     12379     12378     12382     12385
     12379     12378     12424     12421     12379     12378     12424     12425
     12379     12378     12424     12426     12380     12378     12382     12383
     12380     12378     12382     12384     12380     12378     12382     12385
     12380     12378     12424     12421     12380     12378     12424     12425
     12380     12378     12424     12426     12381     12380     12378     12382
     12381     12380     12378     12424     12382     12378     12424     12421
     12382     12378     12424     12425     12382     12378     12424     12426
     12382     12385     12386     12387     12382     12385     12386     12388
     12382     12385     12416     12414     12382     12385     12416     12417
     12382     12385     12416     12421     12383     12382     12378     12424
     12383     12382     12385     12386     12383     12382     12385     12416
     12384     12382     12378     12424     12384     12382     12385     12386
     12384     12382     12385     12416     12385     12382     12378     12424
     12385     12386     12388     12389     12385     12386     12388     12390
     12385     12386     12388     12391     12385     12416     12414     12391
     12385     12416     12414     12411     12385     12416     12414     12415
     12385     12416     12417     12418     12385     12416     12417     12419
     12385     12416     12417     12420     12385     12416     12421     12422
     12385     12416     12421     12423     12385     12416     12421     12424
     12386     12385     12416     12414     12386     12385     12416     12417
     12386     12385     12416     12421     12386     12388     12391     12392
     12386     12388     12391     12393     12386     12388     12391     12414
     12387     12386     12385     12416     12387     12386     12388     12389
     12387     12386     12388     12390     12387     12386     12388     12391
     12388     12386     12385     12416     12388     12391     12393     12394
     12388     12391     12393     12395     12388     12391     12393     12403
     12388     12391     12414     12411     12388     12391     12414     12415
     12388     12391     12414     12416     12389     12388     12391     12392
     12389     12388     12391     12393     12389     12388     12391     12414
     12390     12388     12391     12392     12390     12388     12391     12393
     12390     12388     12391     12414     12391     12393     12395     12396
     12391     12393     12395     12397     12391     12393     12395     12398
     12391     12393     12403     12401     12391     12393     12403     12404
     12391     12393     12403     12408     12391     12414     12411     12408
     12391     12414     12411     12412     12391     12414     12411     12413
     12391     12414     12416     12417     12391     12414     12416     12421
     12392     12391     12393     12394     12392     12391     12393     12395
     12392     12391     12393     12403     12392     12391     12414     12411
     12392     12391     12414     12415     12392     12391     12414     12416
     12393     12391     12414     12411     12393     12391     12414     12415
     12393     12391     12414     12416     12393     12395     12398     12399
     12393     12395     12398     12400     12393     12395     12398     12401
     12393     12403     12401     12398     12393     12403     12401     12402
     12393     12403     12401     12427     12393     12403     12404     12405
     12393     12403     12404     12406     12393     12403     12404     12407
     12393     12403     12408     12409     12393     12403     12408     12410
     12393     12403     12408     12411     12394     12393     12391     12414
     12394     12393     12395     12396     12394     12393     12395     12397
     12394     12393     12395     12398     12394     12393     12403     12401
     12394     12393     12403     12404     12394     12393     12403     12408
     12395     12393     12391     12414     12395     12393     12403     12401
     12395     12393     12403     12404     12395     12393     12403     12408
     12395     12398     12401     12402     12395     12398     12401     12403
     12395     12398     12401     12427     12396     12395     12393     12403
     12396     12395     12398     12399     12396     12395     12398     12400
     12396     12395     12398     12401     12397     12395     12393     12403
     12397     12395     12398     12399     12397     12395     12398     12400
     12397     12395     12398     12401     12398     12395     12393     12403
     12398     12401     12403     12404     12398     12401     12403     12408
     12398     12401     12427     12428     12398     12401     12427     12429
     12398     12401     12427     12433     12399     12398     12401     12402
     12399     12398     12401     12403     12399     12398     12401     12427
     12400     12398     12401     12402     12400     12398     12401     12403
     12400     12398     12401     12427     12401     12403     12404     12405
     12401     12403     12404     12406     12401     12403     12404     12407
     12401     12403     12408     12409     12401     12403     12408     12410
     12401     12403     12408     12411     12401     12427     12429     12430
     12401     12427     12429     12431     12401     12427     12429     12432
     12401     12427     12433     12434     12401     12427     12433     12435
     12401     12427     12433     12436     12402     12401     12403     12404
     12402     12401     12403     12408     12402     12401     12427     12428
     12402     12401     12427     12429     12402     12401     12427     12433
     12403     12393     12391     12414     12403     12401     12427     12428
     12403     12401     12427     12429     12403     12401     12427     12433
     12403     12408     12411     12412     12403     12408     12411     12413
     12403     12408     12411     12414     12404     12403     12401     12427
     12404     12403     12408     12409     12404     12403     12408     12410
     12404     12403     12408     12411     12405     12404     12403     12408
     12406     12404     12403     12408     12407     12404     12403     12408
     12408     12403     12401     12427     12408     12411     12414     12415
     12408     12411     12414     12416     12409     12408     12411     12412
     12409     12408     12411     12413     12409     12408     12411     12414
     12410     12408     12411     12412     12410     12408     12411     12413
     12410     12408     12411     12414     12411     12414     12416     12417
     12411     12414     12416     12421     12412     12411     12414     12415
     12412     12411     12414     12416     12413     12411     12414     12415
     12413     12411     12414     12416     12414     12416     12417     12418
     12414     12416     12417     12419     12414     12416     12417     12420
     12414     12416     12421     12422     12414     12416     12421     12423
     12414     12416     12421     12424     12415     12414     12416     12417
     12415     12414     12416     12421     12416     12421     12424     12425
     12416     12421     12424     12426     12417     12416     12421     12422
     12417     12416     12421     12423     12417     12416     12421     12424
     12418     12417     12416     12421     12419     12417     12416     12421
     12420     12417     12416     12421     12422     12421     12424     12425
     12422     12421     12424     12426     12423     12421     12424     12425
     12423     12421     12424     12426     12427     12433     12436     12437
     12427     12433     12436     12438     12427     12433     12436     12439
     12428     12427     12429     12430     12428     12427     12429     12431
     12428     12427     12429     12432     12428     12427     12433     12434
     12428     12427     12433     12435     12428     12427     12433     12436
     12429     12427     12433     12434     12429     12427     12433     12435
     12429     12427     12433     12436     12430     12429     12427     12433
     12431     12429     12427     12433     12432     12429     12427     12433
     12433     12436     12439     12440     12433     12436     12439     12441
     12433     12436     12439     12442     12434     12433     12436     12437
     12434     12433     12436     12438     12434     12433     12436     12439
     12435     12433     12436     12437     12435     12433     12436     12438
     12435     12433     12436     12439     12436     12439     12442     12443
     12436     12439     12442     12444     12436     12439     12442     12448
     12437     12436     12439     12440     12437     12436     12439     12441
     12437     12436     12439     12442     12438     12436     12439     12440
     12438     12436     12439     12441     12438     12436     12439     12442
     12439     12442     12444     12445     12439     12442     12444     12446
     12439     12442     12444     12447     12439     12442     12448     12449
     12439     12442     12448     12450     12439     12442     12448     12451
     12440     12439     12442     12443     12440     12439     12442     12444
     12440     12439     12442     12448     12441     12439     12442     12443
     12441     12439     12442     12444     12441     12439     12442     12448
     12443     12442     12444     12445     12443     12442     12444     12446
     12443     12442     12444     12447     12443     12442     12448     12449
     12443     12442     12448     12450     12443     12442     12448     12451
     12444     12442     12448     12449     12444     12442     12448     12450
     12444     12442     12448     12451     12445     12444     12442     12448
     12446     12444     12442     12448     12447     12444     12442     12448
     12452     12456     12459     12460     12452     12456     12459     12461
     12452     12456     12459     12465     12453     12452     12456     12457
     12453     12452     12456     12458     12453     12452     12456     12459
     12454     12452     12456     12457     12454     12452     12456     12458
     12454     12452     12456     12459     12455     12452     12456     12457
     12455     12452     12456     12458     12455     12452     12456     12459
     12456     12459     12465     12462     12457     12456     12459     12460
     12457     12456     12459     12461     12457     12456     12459     12465
     12458     12456     12459     12460     12458     12456     12459     12461
     12458     12456     12459     12465     12459     12465     12462     12463
     12459     12465     12462     12464     12459     12465     12462     12466
     12460     12459     12465     12462     12461     12459     12465     12462
     12462     12466     12467     12468     12462     12466     12467     12469
     12462     12466     12467     12470     12463     12462     12466     12467
     12464     12462     12466     12467     12465     12462     12466     12467
     12466     12467     12470     12471     12466     12467     12470     12472
     12466     12467     12470     12478     12467     12470     12472     12473
     12467     12470     12478     12479     12467     12470     12478     12480
     12467     12470     12478     12481     12468     12467     12470     12471
     12468     12467     12470     12472     12468     12467     12470     12478
     12469     12467     12470     12471     12469     12467     12470     12472
     12469     12467     12470     12478     12470     12472     12473     12474
     12470     12472     12473     12475     12470     12478     12481     12482
     12471     12470     12472     12473     12471     12470     12478     12479
     12471     12470     12478     12480     12471     12470     12478     12481
     12472     12470     12478     12479     12472     12470     12478     12480
     12472     12470     12478     12481     12472     12473     12475     12476
     12472     12473     12475     12477     12472     12473     12475     12487
     12473     12472     12470     12478     12473     12475     12487     12488
     12473     12475     12487     12489     12473     12475     12487     12490
     12474     12473     12475     12476     12474     12473     12475     12477
     12474     12473     12475     12487     12475     12487     12490     12491
     12475     12487     12490     12492     12475     12487     12490     12493
     12476     12475     12487     12488     12476     12475     12487     12489
     12476     12475     12487     12490     12477     12475     12487     12488
     12477     12475     12487     12489     12477     12475     12487     12490
     12478     12481     12482     12483     12478     12481     12482     12484
     12479     12478     12481     12482     12480     12478     12481     12482
     12481     12482     12484     12485     12481     12482     12484     12486
     12481     12482     12484     12534     12482     12484     12534     12535
     12482     12484     12534     12536     12482     12484     12534     12537
     12483     12482     12484     12485     12483     12482     12484     12486
     12483     12482     12484     12534     12484     12534     12537     12538
     12484     12534     12537     12539     12484     12534     12537     12540
     12485     12484     12534     12535     12485     12484     12534     12536
     12485     12484     12534     12537     12486     12484     12534     12535
     12486     12484     12534     12536     12486     12484     12534     12537
     12487     12490     12493     12494     12487     12490     12493     12495
     12488     12487     12490     12491     12488     12487     12490     12492
     12488     12487     12490     12493     12489     12487     12490     12491
     12489     12487     12490     12492     12489     12487     12490     12493
     12490     12493     12495     12496     12490     12493     12495     12497
     12491     12490     12493     12494     12491     12490     12493     12495
     12492     12490     12493     12494     12492     12490     12493     12495
     12493     12495     12497     12498     12493     12495     12497     12499
     12493     12495     12497     12500     12494     12493     12495     12496
     12494     12493     12495     12497     12495     12497     12500     12501
     12495     12497     12500     12502     12496     12495     12497     12498
     12496     12495     12497     12499     12496     12495     12497     12500
     12497     12500     12502     12503     12497     12500     12502     12504
     12498     12497     12500     12501     12498     12497     12500     12502
     12499     12497     12500     12501     12499     12497     12500     12502
     12500     12502     12504     12505     12500     12502     12504     12506
     12500     12502     12504     12507     12501     12500     12502     12503
     12501     12500     12502     12504     12502     12504     12507     12508
     12502     12504     12507     12509     12503     12502     12504     12505
     12503     12502     12504     12506     12503     12502     12504     12507
     12504     12507     12509     12510     12504     12507     12509     12511
     12505     12504     12507     12508     12505     12504     12507     12509
     12506     12504     12507     12508     12506     12504     12507     12509
     12507     12509     12511     12512     12507     12509     12511     12513
     12507     12509     12511     12514     12508     12507     12509     12510
     12508     12507     12509     12511     12509     12511     12514     12515
     12509     12511     12514     12516     12510     12509     12511     12512
     12510     12509     12511     12513     12510     12509     12511     12514
     12511     12514     12516     12517     12511     12514     12516     12518
     12512     12511     12514     12515     12512     12511     12514     12516
     12513     12511     12514     12515     12513     12511     12514     12516
     12514     12516     12518     12519     12514     12516     12518     12520
     12514     12516     12518     12521     12515     12514     12516     12517
     12515     12514     12516     12518     12516     12518     12521     12522
     12516     12518     12521     12523     12516     12518     12521     12524
     12517     12516     12518     12519     12517     12516     12518     12520
     12517     12516     12518     12521     12518     12521     12524     12525
     12518     12521     12524     12526     12518     12521     12524     12527
     12519     12518     12521     12522     12519     12518     12521     12523
     12519     12518     12521     12524     12520     12518     12521     12522
     12520     12518     12521     12523     12520     12518     12521     12524
     12521     12524     12527     12528     12521     12524     12527     12529
     12521     12524     12527     12530     12522     12521     12524     12525
     12522     12521     12524     12526     12522     12521     12524     12527
     12523     12521     12524     12525     12523     12521     12524     12526
     12523     12521     12524     12527     12524     12527     12530     12531
     12524     12527     12530     12532     12524     12527     12530     12533
     12525     12524     12527     12528     12525     12524     12527     12529
     12525     12524     12527     12530     12526     12524     12527     12528
     12526     12524     12527     12529     12526     12524     12527     12530
     12528     12527     12530     12531     12528     12527     12530     12532
     12528     12527     12530     12533     12529     12527     12530     12531
     12529     12527     12530     12532     12529     12527     12530     12533
     12534     12537     12540     12541     12534     12537     12540     12542
     12534     12537     12540     12543     12535     12534     12537     12538
     12535     12534     12537     12539     12535     12534     12537     12540
     12536     12534     12537     12538     12536     12534     12537     12539
     12536     12534     12537     12540     12537     12540     12543     12544
     12537     12540     12543     12545     12537     12540     12543     12546
     12538     12537     12540     12541     12538     12537     12540     12542
     12538     12537     12540     12543     12539     12537     12540     12541
     12539     12537     12540     12542     12539     12537     12540     12543
     12540     12543     12546     12547     12540     12543     12546     12548
     12540     12543     12546     12549     12541     12540     12543     12544
     12541     12540     12543     12545     12541     12540     12543     12546
     12542     12540     12543     12544     12542     12540     12543     12545
     12542     12540     12543     12546     12543     12546     12549     12550
     12543     12546     12549     12551     12543     12546     12549     12552
     12544     12543     12546     12547     12544     12543     12546     12548
     12544     12543     12546     12549     12545     12543     12546     12547
     12545     12543     12546     12548     12545     12543     12546     12549
     12546     12549     12552     12553     12546     12549     12552     12554
     12546     12549     12552     12555     12547     12546     12549     12550
     12547     12546     12549     12551     12547     12546     12549     12552
     12548     12546     12549     12550     12548     12546     12549     12551
     12548     12546     12549     12552     12549     12552     12555     12556
     12549     12552     12555     12557     12549     12552     12555     12558
     12550     12549     12552     12553     12550     12549     12552     12554
     12550     12549     12552     12555     12551     12549     12552     12553
     12551     12549     12552     12554     12551     12549     12552     12555
     12552     12555     12558     12559     12552     12555     12558     12560
     12552     12555     12558     12561     12553     12552     12555     12556
     12553     12552     12555     12557     12553     12552     12555     12558
     12554     12552     12555     12556     12554     12552     12555     12557
     12554     12552     12555     12558     12555     12558     12561     12562
     12555     12558     12561     12563     12555     12558     12561     12564
     12556     12555     12558     12559     12556     12555     12558     12560
     12556     12555     12558     12561     12557     12555     12558     12559
     12557     12555     12558     12560     12557     12555     12558     12561
     12558     12561     12564     12565     12558     12561     12564     12566
     12558     12561     12564     12567     12559     12558     12561     12562
     12559     12558     12561     12563     12559     12558     12561     12564
     12560     12558     12561     12562     12560     12558     12561     12563
     12560     12558     12561     12564     12561     12564     12567     12568
     12561     12564     12567     12569     12561     12564     12567     12570
     12562     12561     12564     12565     12562     12561     12564     12566
     12562     12561     12564     12567     12563     12561     12564     12565
     12563     12561     12564     12566     12563     12561     12564     12567
     12564     12567     12570     12571     12564     12567     12570     12572
     12564     12567     12570     12573     12565     12564     12567     12568
     12565     12564     12567     12569     12565     12564     12567     12570
     12566     12564     12567     12568     12566     12564     12567     12569
     12566     12564     12567     12570     12567     12570     12573     12574
     12567     12570     12573     12575     12567     12570     12573     12576
     12568     12567     12570     12571     12568     12567     12570     12572
     12568     12567     12570     12573     12569     12567     12570     12571
     12569     12567     12570     12572     12569     12567     12570     12573
     12570     12573     12576     12577     12570     12573     12576     12578
     12570     12573     12576     12579     12571     12570     12573     12574
     12571     12570     12573     12575     12571     12570     12573     12576
     12572     12570     12573     12574     12572     12570     12573     12575
     12572     12570     12573     12576     12573     12576     12579     12580
     12573     12576     12579     12581     12573     12576     12579     12582
     12574     12573     12576     12577     12574     12573     12576     12578
     12574     12573     12576     12579     12575     12573     12576     12577
     12575     12573     12576     12578     12575     12573     12576     12579
     12577     12576     12579     12580     12577     12576     12579     12581
     12577     12576     12579     12582     12578     12576     12579     12580
     12578     12576     12579     12581     12578     12576     12579     12582
     12583     12587     12590     12591     12583     12587     12590     12592
     12583     12587     12590     12596     12584     12583     12587     12588
     12584     12583     12587     12589     12584     12583     12587     12590
     12585     12583     12587     12588     12585     12583     12587     12589
     12585     12583     12587     12590     12586     12583     12587     12588
     12586     12583     12587     12589     12586     12583     12587     12590
     12587     12590     12596     12593     12588     12587     12590     12591
     12588     12587     12590     12592     12588     12587     12590     12596
     12589     12587     12590     12591     12589     12587     12590     12592
     12589     12587     12590     12596     12590     12596     12593     12594
     12590     12596     12593     12595     12590     12596     12593     12597
     12591     12590     12596     12593     12592     12590     12596     12593
     12593     12597     12598     12599     12593     12597     12598     12600
     12593     12597     12598     12601     12594     12593     12597     12598
     12595     12593     12597     12598     12596     12593     12597     12598
     12597     12598     12601     12602     12597     12598     12601     12603
     12597     12598     12601     12609     12598     12601     12603     12604
     12598     12601     12609     12610     12598     12601     12609     12611
     12598     12601     12609     12612     12599     12598     12601     12602
     12599     12598     12601     12603     12599     12598     12601     12609
     12600     12598     12601     12602     12600     12598     12601     12603
     12600     12598     12601     12609     12601     12603     12604     12605
     12601     12603     12604     12606     12601     12609     12612     12613
     12602     12601     12603     12604     12602     12601     12609     12610
     12602     12601     12609     12611     12602     12601     12609     12612
     12603     12601     12609     12610     12603     12601     12609     12611
     12603     12601     12609     12612     12603     12604     12606     12607
     12603     12604     12606     12608     12603     12604     12606     12618
     12604     12603     12601     12609     12604     12606     12618     12619
     12604     12606     12618     12620     12604     12606     12618     12621
     12605     12604     12606     12607     12605     12604     12606     12608
     12605     12604     12606     12618     12606     12618     12621     12622
     12606     12618     12621     12623     12606     12618     12621     12624
     12607     12606     12618     12619     12607     12606     12618     12620
     12607     12606     12618     12621     12608     12606     12618     12619
     12608     12606     12618     12620     12608     12606     12618     12621
     12609     12612     12613     12614     12609     12612     12613     12615
     12610     12609     12612     12613     12611     12609     12612     12613
     12612     12613     12615     12616     12612     12613     12615     12617
     12612     12613     12615     12665     12613     12615     12665     12666
     12613     12615     12665     12667     12613     12615     12665     12668
     12614     12613     12615     12616     12614     12613     12615     12617
     12614     12613     12615     12665     12615     12665     12668     12669
     12615     12665     12668     12670     12615     12665     12668     12671
     12616     12615     12665     12666     12616     12615     12665     12667
     12616     12615     12665     12668     12617     12615     12665     12666
     12617     12615     12665     12667     12617     12615     12665     12668
     12618     12621     12624     12625     12618     12621     12624     12626
     12618     12621     12624     12627     12619     12618     12621     12622
     12619     12618     12621     12623     12619     12618     12621     12624
     12620     12618     12621     12622     12620     12618     12621     12623
     12620     12618     12621     12624     12621     12624     12627     12628
     12621     12624     12627     12629     12621     12624     12627     12630
     12622     12621     12624     12625     12622     12621     12624     12626
     12622     12621     12624     12627     12623     12621     12624     12625
     12623     12621     12624     12626     12623     12621     12624     12627
     12624     12627     12630     12631     12624     12627     12630     12632
     12624     12627     12630     12633     12625     12624     12627     12628
     12625     12624     12627     12629     12625     12624     12627     12630
     12626     12624     12627     12628     12626     12624     12627     12629
     12626     12624     12627     12630     12627     12630     12633     12634
     12627     12630     12633     12635     12627     12630     12633     12636
     12628     12627     12630     12631     12628     12627     12630     12632
     12628     12627     12630     12633     12629     12627     12630     12631
     12629     12627     12630     12632     12629     12627     12630     12633
     12630     12633     12636     12637     12630     12633     12636     12638
     12631     12630     12633     12634     12631     12630     12633     12635
     12631     12630     12633     12636     12632     12630     12633     12634
     12632     12630     12633     12635     12632     12630     12633     12636
     12633     12636     12638     12639     12633     12636     12638     12640
     12634     12633     12636     12637     12634     12633     12636     12638
     12635     12633     12636     12637     12635     12633     12636     12638
     12636     12638     12640     12641     12636     12638     12640     12642
     12636     12638     12640     12643     12637     12636     12638     12639
     12637     12636     12638     12640     12638     12640     12643     12644
     12638     12640     12643     12645     12638     12640     12643     12646
     12639     12638     12640     12641     12639     12638     12640     12642
     12639     12638     12640     12643     12640     12643     12646     12647
     12640     12643     12646     12648     12640     12643     12646     12649
     12641     12640     12643     12644     12641     12640     12643     12645
     12641     12640     12643     12646     12642     12640     12643     12644
     12642     12640     12643     12645     12642     12640     12643     12646
     12643     12646     12649     12650     12643     12646     12649     12651
     12643     12646     12649     12652     12644     12643     12646     12647
     12644     12643     12646     12648     12644     12643     12646     12649
     12645     12643     12646     12647     12645     12643     12646     12648
     12645     12643     12646     12649     12646     12649     12652     12653
     12646     12649     12652     12654     12646     12649     12652     12655
     12647     12646     12649     12650     12647     12646     12649     12651
     12647     12646     12649     12652     12648     12646     12649     12650
     12648     12646     12649     12651     12648     12646     12649     12652
     12649     12652     12655     12656     12649     12652     12655     12657
     12649     12652     12655     12658     12650     12649     12652     12653
     12650     12649     12652     12654     12650     12649     12652     12655
     12651     12649     12652     12653     12651     12649     12652     12654
     12651     12649     12652     12655     12652     12655     12658     12659
     12652     12655     12658     12660     12652     12655     12658     12661
     12653     12652     12655     12656     12653     12652     12655     12657
     12653     12652     12655     12658     12654     12652     12655     12656
     12654     12652     12655     12657     12654     12652     12655     12658
     12655     12658     12661     12662     12655     12658     12661     12663
     12655     12658     12661     12664     12656     12655     12658     12659
     12656     12655     12658     12660     12656     12655     12658     12661
     12657     12655     12658     12659     12657     12655     12658     12660
     12657     12655     12658     12661     12659     12658     12661     12662
     12659     12658     12661     12663     12659     12658     12661     12664
     12660     12658     12661     12662     12660     12658     12661     12663
     12660     12658     12661     12664     12665     12668     12671     12672
     12665     12668     12671     12673     12665     12668     12671     12674
     12666     12665     12668     12669     12666     12665     12668     12670
     12666     12665     12668     12671     12667     12665     12668     12669
     12667     12665     12668     12670     12667     12665     12668     12671
     12668     12671     12674     12675     12668     12671     12674     12676
     12668     12671     12674     12677     12669     12668     12671     12672
     12669     12668     12671     12673     12669     12668     12671     12674
     12670     12668     12671     12672     12670     12668     12671     12673
     12670     12668     12671     12674     12671     12674     12677     12678
     12671     12674     12677     12679     12671     12674     12677     12680
     12672     12671     12674     12675     12672     12671     12674     12676
     12672     12671     12674     12677     12673     12671     12674     12675
     12673     12671     12674     12676     12673     12671     12674     12677
     12674     12677     12680     12681     12674     12677     12680     12682
     12674     12677     12680     12683     12675     12674     12677     12678
     12675     12674     12677     12679     12675     12674     12677     12680
     12676     12674     12677     12678     12676     12674     12677     12679
     12676     12674     12677     12680     12677     12680     12683     12684
     12677     12680     12683     12685     12677     12680     12683     12686
     12678     12677     12680     12681     12678     12677     12680     12682
     12678     12677     12680     12683     12679     12677     12680     12681
     12679     12677     12680     12682     12679     12677     12680     12683
     12680     12683     12686     12687     12680     12683     12686     12688
     12680     12683     12686     12689     12681     12680     12683     12684
     12681     12680     12683     12685     12681     12680     12683     12686
     12682     12680     12683     12684     12682     12680     12683     12685
     12682     12680     12683     12686     12683     12686     12689     12690
     12683     12686     12689     12691     12683     12686     12689     12692
     12684     12683     12686     12687     12684     12683     12686     12688
     12684     12683     12686     12689     12685     12683     12686     12687
     12685     12683     12686     12688     12685     12683     12686     12689
     12686     12689     12692     12693     12686     12689     12692     12694
     12686     12689     12692     12695     12687     12686     12689     12690
     12687     12686     12689     12691     12687     12686     12689     12692
     12688     12686     12689     12690     12688     12686     12689     12691
     12688     12686     12689     12692     12689     12692     12695     12696
     12689     12692     12695     12697     12689     12692     12695     12698
     12690     12689     12692     12693     12690     12689     12692     12694
     12690     12689     12692     12695     12691     12689     12692     12693
     12691     12689     12692     12694     12691     12689     12692     12695
     12692     12695     12698     12699     12692     12695     12698     12700
     12692     12695     12698     12701     12693     12692     12695     12696
     12693     12692     12695     12697     12693     12692     12695     12698
     12694     12692     12695     12696     12694     12692     12695     12697
     12694     12692     12695     12698     12695     12698     12701     12702
     12695     12698     12701     12703     12695     12698     12701     12704
     12696     12695     12698     12699     12696     12695     12698     12700
     12696     12695     12698     12701     12697     12695     12698     12699
     12697     12695     12698     12700     12697     12695     12698     12701
     12698     12701     12704     12705     12698     12701     12704     12706
     12698     12701     12704     12707     12699     12698     12701     12702
     12699     12698     12701     12703     12699     12698     12701     12704
     12700     12698     12701     12702     12700     12698     12701     12703
     12700     12698     12701     12704     12701     12704     12707     12708
     12701     12704     12707     12709     12701     12704     12707     12710
     12702     12701     12704     12705     12702     12701     12704     12706
     12702     12701     12704     12707     12703     12701     12704     12705
     12703     12701     12704     12706     12703     12701     12704     12707
     12704     12707     12710     12711     12704     12707     12710     12712
     12704     12707     12710     12713     12705     12704     12707     12708
     12705     12704     12707     12709     12705     12704     12707     12710
     12706     12704     12707     12708     12706     12704     12707     12709
     12706     12704     12707     12710     12708     12707     12710     12711
     12708     12707     12710     12712     12708     12707     12710     12713
     12709     12707     12710     12711     12709     12707     12710     12712
     12709     12707     12710     12713     12714     12718     12721     12722
     12714     12718     12721     12752     12714     12760     12757     12752
     12714     12760     12757     12758     12714     12760     12757     12759
     12715     12714     12716     12717     12715     12714     12718     12719
     12715     12714     12718     12720     12715     12714     12718     12721
     12715     12714     12760     12757     12715     12714     12760     12761
     12715     12714     12760     12762     12716     12714     12718     12719
     12716     12714     12718     12720     12716     12714     12718     12721
     12716     12714     12760     12757     12716     12714     12760     12761
     12716     12714     12760     12762     12717     12716     12714     12718
     12717     12716     12714     12760     12718     12714     12760     12757
     12718     12714     12760     12761     12718     12714     12760     12762
     12718     12721     12722     12723     12718     12721     12722     12724
     12718     12721     12752     12750     12718     12721     12752     12753
     12718     12721     12752     12757     12719     12718     12714     12760
     12719     12718     12721     12722     12719     12718     12721     12752
     12720     12718     12714     12760     12720     12718     12721     12722
     12720     12718     12721     12752     12721     12718     12714     12760
     12721     12722     12724     12725     12721     12722     12724     12726
     12721     12722     12724     12727     12721     12752     12750     12727
     12721     12752     12750     12747     12721     12752     12750     12751
     12721     12752     12753     12754     12721     12752     12753     12755
     12721     12752     12753     12756     12721     12752     12757     12758
     12721     12752     12757     12759     12721     12752     12757     12760
     12722     12721     12752     12750     12722     12721     12752     12753
     12722     12721     12752     12757     12722     12724     12727     12728
     12722     12724     12727     12729     12722     12724     12727     12750
     12723     12722     12721     12752     12723     12722     12724     12725
     12723     12722     12724     12726     12723     12722     12724     12727
     12724     12722     12721     12752     12724     12727     12729     12730
     12724     12727     12729     12731     12724     12727     12729     12739
     12724     12727     12750     12747     12724     12727     12750     12751
     12724     12727     12750     12752     12725     12724     12727     12728
     12725     12724     12727     12729     12725     12724     12727     12750
     12726     12724     12727     12728     12726     12724     12727     12729
     12726     12724     12727     12750     12727     12729     12731     12732
     12727     12729     12731     12733     12727     12729     12731     12734
     12727     12729     12739     12737     12727     12729     12739     12740
     12727     12729     12739     12744     12727     12750     12747     12744
     12727     12750     12747     12748     12727     12750     12747     12749
     12727     12750     12752     12753     12727     12750     12752     12757
     12728     12727     12729     12730     12728     12727     12729     12731
     12728     12727     12729     12739     12728     12727     12750     12747
     12728     12727     12750     12751     12728     12727     12750     12752
     12729     12727     12750     12747     12729     12727     12750     12751
     12729     12727     12750     12752     12729     12731     12734     12735
     12729     12731     12734     12736     12729     12731     12734     12737
     12729     12739     12737     12734     12729     12739     12737     12738
     12729     12739     12737     12763     12729     12739     12740     12741
     12729     12739     12740     12742     12729     12739     12740     12743
     12729     12739     12744     12745     12729     12739     12744     12746
     12729     12739     12744     12747     12730     12729     12727     12750
     12730     12729     12731     12732     12730     12729     12731     12733
     12730     12729     12731     12734     12730     12729     12739     12737
     12730     12729     12739     12740     12730     12729     12739     12744
     12731     12729     12727     12750     12731     12729     12739     12737
     12731     12729     12739     12740     12731     12729     12739     12744
     12731     12734     12737     12738     12731     12734     12737     12739
     12731     12734     12737     12763     12732     12731     12729     12739
     12732     12731     12734     12735     12732     12731     12734     12736
     12732     12731     12734     12737     12733     12731     12729     12739
     12733     12731     12734     12735     12733     12731     12734     12736
     12733     12731     12734     12737     12734     12731     12729     12739
     12734     12737     12739     12740     12734     12737     12739     12744
     12734     12737     12763     12764     12734     12737     12763     12765
     12734     12737     12763     12769     12735     12734     12737     12738
     12735     12734     12737     12739     12735     12734     12737     12763
     12736     12734     12737     12738     12736     12734     12737     12739
     12736     12734     12737     12763     12737     12739     12740     12741
     12737     12739     12740     12742     12737     12739     12740     12743
     12737     12739     12744     12745     12737     12739     12744     12746
     12737     12739     12744     12747     12737     12763     12765     12766
     12737     12763     12765     12767     12737     12763     12765     12768
     12737     12763     12769     12770     12737     12763     12769     12771
     12737     12763     12769     12772     12738     12737     12739     12740
     12738     12737     12739     12744     12738     12737     12763     12764
     12738     12737     12763     12765     12738     12737     12763     12769
     12739     12729     12727     12750     12739     12737     12763     12764
     12739     12737     12763     12765     12739     12737     12763     12769
     12739     12744     12747     12748     12739     12744     12747     12749
     12739     12744     12747     12750     12740     12739     12737     12763
     12740     12739     12744     12745     12740     12739     12744     12746
     12740     12739     12744     12747     12741     12740     12739     12744
     12742     12740     12739     12744     12743     12740     12739     12744
     12744     12739     12737     12763     12744     12747     12750     12751
     12744     12747     12750     12752     12745     12744     12747     12748
     12745     12744     12747     12749     12745     12744     12747     12750
     12746     12744     12747     12748     12746     12744     12747     12749
     12746     12744     12747     12750     12747     12750     12752     12753
     12747     12750     12752     12757     12748     12747     12750     12751
     12748     12747     12750     12752     12749     12747     12750     12751
     12749     12747     12750     12752     12750     12752     12753     12754
     12750     12752     12753     12755     12750     12752     12753     12756
     12750     12752     12757     12758     12750     12752     12757     12759
     12750     12752     12757     12760     12751     12750     12752     12753
     12751     12750     12752     12757     12752     12757     12760     12761
     12752     12757     12760     12762     12753     12752     12757     12758
     12753     12752     12757     12759     12753     12752     12757     12760
     12754     12753     12752     12757     12755     12753     12752     12757
     12756     12753     12752     12757     12758     12757     12760     12761
     12758     12757     12760     12762     12759     12757     12760     12761
     12759     12757     12760     12762     12763     12769     12772     12773
     12763     12769     12772     12774     12763     12769     12772     12775
     12764     12763     12765     12766     12764     12763     12765     12767
     12764     12763     12765     12768     12764     12763     12769     12770
     12764     12763     12769     12771     12764     12763     12769     12772
     12765     12763     12769     12770     12765     12763     12769     12771
     12765     12763     12769     12772     12766     12765     12763     12769
     12767     12765     12763     12769     12768     12765     12763     12769
     12769     12772     12775     12776     12769     12772     12775     12777
     12769     12772     12775     12778     12770     12769     12772     12773
     12770     12769     12772     12774     12770     12769     12772     12775
     12771     12769     12772     12773     12771     12769     12772     12774
     12771     12769     12772     12775     12772     12775     12778     12779
     12772     12775     12778     12780     12772     12775     12778     12784
     12773     12772     12775     12776     12773     12772     12775     12777
     12773     12772     12775     12778     12774     12772     12775     12776
     12774     12772     12775     12777     12774     12772     12775     12778
     12775     12778     12780     12781     12775     12778     12780     12782
     12775     12778     12780     12783     12775     12778     12784     12785
     12775     12778     12784     12786     12775     12778     12784     12787
     12776     12775     12778     12779     12776     12775     12778     12780
     12776     12775     12778     12784     12777     12775     12778     12779
     12777     12775     12778     12780     12777     12775     12778     12784
     12779     12778     12780     12781     12779     12778     12780     12782
     12779     12778     12780     12783     12779     12778     12784     12785
     12779     12778     12784     12786     12779     12778     12784     12787
     12780     12778     12784     12785     12780     12778     12784     12786
     12780     12778     12784     12787     12781     12780     12778     12784
     12782     12780     12778     12784     12783     12780     12778     12784
     12788     12801     12804     12805     12788     12801     12804     12806
     12788     12801     12804     12810     12789     12788     12793     12794
     12789     12788     12793     12795     12789     12788     12793     12796
     12789     12788     12797     12798     12789     12788     12797     12799
     12789     12788     12797     12800     12789     12788     12801     12802
     12789     12788     12801     12803     12789     12788     12801     12804
     12790     12789     12788     12793     12790     12789     12788     12797
     12790     12789     12788     12801     12791     12789     12788     12793
     12791     12789     12788     12797     12791     12789     12788     12801
     12792     12789     12788     12793     12792     12789     12788     12797
     12792     12789     12788     12801     12793     12788     12797     12798
     12793     12788     12797     12799     12793     12788     12797     12800
     12793     12788     12801     12802     12793     12788     12801     12803
     12793     12788     12801     12804     12794     12793     12788     12797
     12794     12793     12788     12801     12795     12793     12788     12797
     12795     12793     12788     12801     12796     12793     12788     12797
     12796     12793     12788     12801     12797     12788     12801     12802
     12797     12788     12801     12803     12797     12788     12801     12804
     12798     12797     12788     12801     12799     12797     12788     12801
     12800     12797     12788     12801     12801     12804     12810     12807
     12802     12801     12804     12805     12802     12801     12804     12806
     12802     12801     12804     12810     12803     12801     12804     12805
     12803     12801     12804     12806     12803     12801     12804     12810
     12804     12810     12807     12808     12804     12810     12807     12809
     12804     12810     12807     12811     12805     12804     12810     12807
     12806     12804     12810     12807     12807     12811     12812     12813
     12807     12811     12812     12814     12807     12811     12812     12815
     12808     12807     12811     12812     12809     12807     12811     12812
     12810     12807     12811     12812     12811     12812     12815     12816
     12811     12812     12815     12817     12811     12812     12815     12823
     12812     12815     12817     12818     12812     12815     12823     12824
     12812     12815     12823     12825     12812     12815     12823     12826
     12813     12812     12815     12816     12813     12812     12815     12817
     12813     12812     12815     12823     12814     12812     12815     12816
     12814     12812     12815     12817     12814     12812     12815     12823
     12815     12817     12818     12819     12815     12817     12818     12820
     12815     12823     12826     12827     12816     12815     12817     12818
     12816     12815     12823     12824     12816     12815     12823     12825
     12816     12815     12823     12826     12817     12815     12823     12824
     12817     12815     12823     12825     12817     12815     12823     12826
     12817     12818     12820     12821     12817     12818     12820     12822
     12817     12818     12820     12832     12818     12817     12815     12823
     12818     12820     12832     12833     12818     12820     12832     12834
     12818     12820     12832     12835     12819     12818     12820     12821
     12819     12818     12820     12822     12819     12818     12820     12832
     12820     12832     12835     12836     12820     12832     12835     12837
     12820     12832     12835     12838     12821     12820     12832     12833
     12821     12820     12832     12834     12821     12820     12832     12835
     12822     12820     12832     12833     12822     12820     12832     12834
     12822     12820     12832     12835     12823     12826     12827     12828
     12823     12826     12827     12829     12824     12823     12826     12827
     12825     12823     12826     12827     12826     12827     12829     12830
     12826     12827     12829     12831     12826     12827     12829     12877
     12827     12829     12877     12878     12827     12829     12877     12879
     12827     12829     12877     12880     12828     12827     12829     12830
     12828     12827     12829     12831     12828     12827     12829     12877
     12829     12877     12880     12881     12829     12877     12880     12882
     12829     12877     12880     12883     12830     12829     12877     12878
     12830     12829     12877     12879     12830     12829     12877     12880
     12831     12829     12877     12878     12831     12829     12877     12879
     12831     12829     12877     12880     12832     12835     12838     12839
     12832     12835     12838     12840     12832     12835     12838     12841
     12833     12832     12835     12836     12833     12832     12835     12837
     12833     12832     12835     12838     12834     12832     12835     12836
     12834     12832     12835     12837     12834     12832     12835     12838
     12835     12838     12841     12842     12835     12838     12841     12843
     12835     12838     12841     12844     12836     12835     12838     12839
     12836     12835     12838     12840     12836     12835     12838     12841
     12837     12835     12838     12839     12837     12835     12838     12840
     12837     12835     12838     12841     12838     12841     12844     12845
     12838     12841     12844     12846     12838     12841     12844     12847
     12839     12838     12841     12842     12839     12838     12841     12843
     12839     12838     12841     12844     12840     12838     12841     12842
     12840     12838     12841     12843     12840     12838     12841     12844
     12841     12844     12847     12848     12841     12844     12847     12849
     12841     12844     12847     12850     12842     12841     12844     12845
     12842     12841     12844     12846     12842     12841     12844     12847
     12843     12841     12844     12845     12843     12841     12844     12846
     12843     12841     12844     12847     12844     12847     12850     12851
     12844     12847     12850     12852     12845     12844     12847     12848
     12845     12844     12847     12849     12845     12844     12847     12850
     12846     12844     12847     12848     12846     12844     12847     12849
     12846     12844     12847     12850     12847     12850     12852     12853
     12847     12850     12852     12854     12848     12847     12850     12851
     12848     12847     12850     12852     12849     12847     12850     12851
     12849     12847     12850     12852     12850     12852     12854     12855
     12850     12852     12854     12856     12850     12852     12854     12857
     12851     12850     12852     12853     12851     12850     12852     12854
     12852     12854     12857     12858     12852     12854     12857     12859
     12853     12852     12854     12855     12853     12852     12854     12856
     12853     12852     12854     12857     12854     12857     12859     12860
     12854     12857     12859     12861     12855     12854     12857     12858
     12855     12854     12857     12859     12856     12854     12857     12858
     12856     12854     12857     12859     12857     12859     12861     12862
     12857     12859     12861     12863     12857     12859     12861     12864
     12858     12857     12859     12860     12858     12857     12859     12861
     12859     12861     12864     12865     12859     12861     12864     12866
     12859     12861     12864     12867     12860     12859     12861     12862
     12860     12859     12861     12863     12860     12859     12861     12864
     12861     12864     12867     12868     12861     12864     12867     12869
     12861     12864     12867     12870     12862     12861     12864     12865
     12862     12861     12864     12866     12862     12861     12864     12867
     12863     12861     12864     12865     12863     12861     12864     12866
     12863     12861     12864     12867     12864     12867     12870     12871
     12864     12867     12870     12872     12864     12867     12870     12873
     12865     12864     12867     12868     12865     12864     12867     12869
     12865     12864     12867     12870     12866     12864     12867     12868
     12866     12864     12867     12869     12866     12864     12867     12870
     12867     12870     12873     12874     12867     12870     12873     12875
     12867     12870     12873     12876     12868     12867     12870     12871
     12868     12867     12870     12872     12868     12867     12870     12873
     12869     12867     12870     12871     12869     12867     12870     12872
     12869     12867     12870     12873     12871     12870     12873     12874
     12871     12870     12873     12875     12871     12870     12873     12876
     12872     12870     12873     12874     12872     12870     12873     12875
     12872     12870     12873     12876     12877     12880     12883     12884
     12877     12880     12883     12885     12877     12880     12883     12886
     12878     12877     12880     12881     12878     12877     12880     12882
     12878     12877     12880     12883     12879     12877     12880     12881
     12879     12877     12880     12882     12879     12877     12880     12883
     12880     12883     12886     12887     12880     12883     12886     12888
     12880     12883     12886     12889     12881     12880     12883     12884
     12881     12880     12883     12885     12881     12880     12883     12886
     12882     12880     12883     12884     12882     12880     12883     12885
     12882     12880     12883     12886     12883     12886     12889     12890
     12883     12886     12889     12891     12883     12886     12889     12892
     12884     12883     12886     12887     12884     12883     12886     12888
     12884     12883     12886     12889     12885     12883     12886     12887
     12885     12883     12886     12888     12885     12883     12886     12889
     12886     12889     12892     12893     12886     12889     12892     12894
     12886     12889     12892     12895     12887     12886     12889     12890
     12887     12886     12889     12891     12887     12886     12889     12892
     12888     12886     12889     12890     12888     12886     12889     12891
     12888     12886     12889     12892     12889     12892     12895     12896
     12889     12892     12895     12897     12889     12892     12895     12898
     12890     12889     12892     12893     12890     12889     12892     12894
     12890     12889     12892     12895     12891     12889     12892     12893
     12891     12889     12892     12894     12891     12889     12892     12895
     12892     12895     12898     12899     12892     12895     12898     12900
     12892     12895     12898     12901     12893     12892     12895     12896
     12893     12892     12895     12897     12893     12892     12895     12898
     12894     12892     12895     12896     12894     12892     12895     12897
     12894     12892     12895     12898     12895     12898     12901     12902
     12895     12898     12901     12903     12895     12898     12901     12904
     12896     12895     12898     12899     12896     12895     12898     12900
     12896     12895     12898     12901     12897     12895     12898     12899
     12897     12895     12898     12900     12897     12895     12898     12901
     12898     12901     12904     12905     12898     12901     12904     12906
     12898     12901     12904     12907     12899     12898     12901     12902
     12899     12898     12901     12903     12899     12898     12901     12904
     12900     12898     12901     12902     12900     12898     12901     12903
     12900     12898     12901     12904     12901     12904     12907     12908
     12901     12904     12907     12909     12901     12904     12907     12910
     12902     12901     12904     12905     12902     12901     12904     12906
     12902     12901     12904     12907     12903     12901     12904     12905
     12903     12901     12904     12906     12903     12901     12904     12907
     12904     12907     12910     12911     12904     12907     12910     12912
     12904     12907     12910     12913     12905     12904     12907     12908
     12905     12904     12907     12909     12905     12904     12907     12910
     12906     12904     12907     12908     12906     12904     12907     12909
     12906     12904     12907     12910     12907     12910     12913     12914
     12907     12910     12913     12915     12907     12910     12913     12916
     12908     12907     12910     12911     12908     12907     12910     12912
     12908     12907     12910     12913     12909     12907     12910     12911
     12909     12907     12910     12912     12909     12907     12910     12913
     12910     12913     12916     12917     12910     12913     12916     12918
     12910     12913     12916     12919     12911     12910     12913     12914
     12911     12910     12913     12915     12911     12910     12913     12916
     12912     12910     12913     12914     12912     12910     12913     12915
     12912     12910     12913     12916     12913     12916     12919     12920
     12913     12916     12919     12921     12913     12916     12919     12922
     12914     12913     12916     12917     12914     12913     12916     12918
     12914     12913     12916     12919     12915     12913     12916     12917
     12915     12913     12916     12918     12915     12913     12916     12919
     12916     12919     12922     12923     12916     12919     12922     12924
     12916     12919     12922     12925     12917     12916     12919     12920
     12917     12916     12919     12921     12917     12916     12919     12922
     12918     12916     12919     12920     12918     12916     12919     12921
     12918     12916     12919     12922     12920     12919     12922     12923
     12920     12919     12922     12924     12920     12919     12922     12925
     12921     12919     12922     12923     12921     12919     12922     12924
     12921     12919     12922     12925     12926     12930     12933     12934
     12926     12930     12933     12964     12926     12972     12969     12964
     12926     12972     12969     12970     12926     12972     12969     12971
     12927     12926     12928     12929     12927     12926     12930     12931
     12927     12926     12930     12932     12927     12926     12930     12933
     12927     12926     12972     12969     12927     12926     12972     12973
     12927     12926     12972     12974     12928     12926     12930     12931
     12928     12926     12930     12932     12928     12926     12930     12933
     12928     12926     12972     12969     12928     12926     12972     12973
     12928     12926     12972     12974     12929     12928     12926     12930
     12929     12928     12926     12972     12930     12926     12972     12969
     12930     12926     12972     12973     12930     12926     12972     12974
     12930     12933     12934     12935     12930     12933     12934     12936
     12930     12933     12964     12962     12930     12933     12964     12965
     12930     12933     12964     12969     12931     12930     12926     12972
     12931     12930     12933     12934     12931     12930     12933     12964
     12932     12930     12926     12972     12932     12930     12933     12934
     12932     12930     12933     12964     12933     12930     12926     12972
     12933     12934     12936     12937     12933     12934     12936     12938
     12933     12934     12936     12939     12933     12964     12962     12939
     12933     12964     12962     12959     12933     12964     12962     12963
     12933     12964     12965     12966     12933     12964     12965     12967
     12933     12964     12965     12968     12933     12964     12969     12970
     12933     12964     12969     12971     12933     12964     12969     12972
     12934     12933     12964     12962     12934     12933     12964     12965
     12934     12933     12964     12969     12934     12936     12939     12940
     12934     12936     12939     12941     12934     12936     12939     12962
     12935     12934     12933     12964     12935     12934     12936     12937
     12935     12934     12936     12938     12935     12934     12936     12939
     12936     12934     12933     12964     12936     12939     12941     12942
     12936     12939     12941     12943     12936     12939     12941     12951
     12936     12939     12962     12959     12936     12939     12962     12963
     12936     12939     12962     12964     12937     12936     12939     12940
     12937     12936     12939     12941     12937     12936     12939     12962
     12938     12936     12939     12940     12938     12936     12939     12941
     12938     12936     12939     12962     12939     12941     12943     12944
     12939     12941     12943     12945     12939     12941     12943     12946
     12939     12941     12951     12949     12939     12941     12951     12952
     12939     12941     12951     12956     12939     12962     12959     12956
     12939     12962     12959     12960     12939     12962     12959     12961
     12939     12962     12964     12965     12939     12962     12964     12969
     12940     12939     12941     12942     12940     12939     12941     12943
     12940     12939     12941     12951     12940     12939     12962     12959
     12940     12939     12962     12963     12940     12939     12962     12964
     12941     12939     12962     12959     12941     12939     12962     12963
     12941     12939     12962     12964     12941     12943     12946     12947
     12941     12943     12946     12948     12941     12943     12946     12949
     12941     12951     12949     12946     12941     12951     12949     12950
     12941     12951     12949     12975     12941     12951     12952     12953
     12941     12951     12952     12954     12941     12951     12952     12955
     12941     12951     12956     12957     12941     12951     12956     12958
     12941     12951     12956     12959     12942     12941     12939     12962
     12942     12941     12943     12944     12942     12941     12943     12945
     12942     12941     12943     12946     12942     12941     12951     12949
     12942     12941     12951     12952     12942     12941     12951     12956
     12943     12941     12939     12962     12943     12941     12951     12949
     12943     12941     12951     12952     12943     12941     12951     12956
     12943     12946     12949     12950     12943     12946     12949     12951
     12943     12946     12949     12975     12944     12943     12941     12951
     12944     12943     12946     12947     12944     12943     12946     12948
     12944     12943     12946     12949     12945     12943     12941     12951
     12945     12943     12946     12947     12945     12943     12946     12948
     12945     12943     12946     12949     12946     12943     12941     12951
     12946     12949     12951     12952     12946     12949     12951     12956
     12946     12949     12975     12976     12946     12949     12975     12977
     12946     12949     12975     12981     12947     12946     12949     12950
     12947     12946     12949     12951     12947     12946     12949     12975
     12948     12946     12949     12950     12948     12946     12949     12951
     12948     12946     12949     12975     12949     12951     12952     12953
     12949     12951     12952     12954     12949     12951     12952     12955
     12949     12951     12956     12957     12949     12951     12956     12958
     12949     12951     12956     12959     12949     12975     12977     12978
     12949     12975     12977     12979     12949     12975     12977     12980
     12949     12975     12981     12982     12949     12975     12981     12983
     12949     12975     12981     12984     12950     12949     12951     12952
     12950     12949     12951     12956     12950     12949     12975     12976
     12950     12949     12975     12977     12950     12949     12975     12981
     12951     12941     12939     12962     12951     12949     12975     12976
     12951     12949     12975     12977     12951     12949     12975     12981
     12951     12956     12959     12960     12951     12956     12959     12961
     12951     12956     12959     12962     12952     12951     12949     12975
     12952     12951     12956     12957     12952     12951     12956     12958
     12952     12951     12956     12959     12953     12952     12951     12956
     12954     12952     12951     12956     12955     12952     12951     12956
     12956     12951     12949     12975     12956     12959     12962     12963
     12956     12959     12962     12964     12957     12956     12959     12960
     12957     12956     12959     12961     12957     12956     12959     12962
     12958     12956     12959     12960     12958     12956     12959     12961
     12958     12956     12959     12962     12959     12962     12964     12965
     12959     12962     12964     12969     12960     12959     12962     12963
     12960     12959     12962     12964     12961     12959     12962     12963
     12961     12959     12962     12964     12962     12964     12965     12966
     12962     12964     12965     12967     12962     12964     12965     12968
     12962     12964     12969     12970     12962     12964     12969     12971
     12962     12964     12969     12972     12963     12962     12964     12965
     12963     12962     12964     12969     12964     12969     12972     12973
     12964     12969     12972     12974     12965     12964     12969     12970
     12965     12964     12969     12971     12965     12964     12969     12972
     12966     12965     12964     12969     12967     12965     12964     12969
     12968     12965     12964     12969     12970     12969     12972     12973
     12970     12969     12972     12974     12971     12969     12972     12973
     12971     12969     12972     12974     12975     12981     12984     12985
     12975     12981     12984     12986     12975     12981     12984     12987
     12976     12975     12977     12978     12976     12975     12977     12979
     12976     12975     12977     12980     12976     12975     12981     12982
     12976     12975     12981     12983     12976     12975     12981     12984
     12977     12975     12981     12982     12977     12975     12981     12983
     12977     12975     12981     12984     12978     12977     12975     12981
     12979     12977     12975     12981     12980     12977     12975     12981
     12981     12984     12987     12988     12981     12984     12987     12989
     12981     12984     12987     12990     12982     12981     12984     12985
     12982     12981     12984     12986     12982     12981     12984     12987
     12983     12981     12984     12985     12983     12981     12984     12986
     12983     12981     12984     12987     12984     12987     12990     12991
     12984     12987     12990     12992     12984     12987     12990     12996
     12985     12984     12987     12988     12985     12984     12987     12989
     12985     12984     12987     12990     12986     12984     12987     12988
     12986     12984     12987     12989     12986     12984     12987     12990
     12987     12990     12992     12993     12987     12990     12992     12994
     12987     12990     12992     12995     12987     12990     12996     12997
     12987     12990     12996     12998     12987     12990     12996     12999
     12988     12987     12990     12991     12988     12987     12990     12992
     12988     12987     12990     12996     12989     12987     12990     12991
     12989     12987     12990     12992     12989     12987     12990     12996
     12991     12990     12992     12993     12991     12990     12992     12994
     12991     12990     12992     12995     12991     12990     12996     12997
     12991     12990     12996     12998     12991     12990     12996     12999
     12992     12990     12996     12997     12992     12990     12996     12998
     12992     12990     12996     12999     12993     12992     12990     12996
     12994     12992     12990     12996     12995     12992     12990     12996
     13000     13013     13016     13017     13000     13013     13016     13018
     13000     13013     13016     13023     13001     13000     13005     13006
     13001     13000     13005     13007     13001     13000     13005     13008
     13001     13000     13009     13010     13001     13000     13009     13011
     13001     13000     13009     13012     13001     13000     13013     13014
     13001     13000     13013     13015     13001     13000     13013     13016
     13002     13001     13000     13005     13002     13001     13000     13009
     13002     13001     13000     13013     13003     13001     13000     13005
     13003     13001     13000     13009     13003     13001     13000     13013
     13004     13001     13000     13005     13004     13001     13000     13009
     13004     13001     13000     13013     13005     13000     13009     13010
     13005     13000     13009     13011     13005     13000     13009     13012
     13005     13000     13013     13014     13005     13000     13013     13015
     13005     13000     13013     13016     13006     13005     13000     13009
     13006     13005     13000     13013     13007     13005     13000     13009
     13007     13005     13000     13013     13008     13005     13000     13009
     13008     13005     13000     13013     13009     13000     13013     13014
     13009     13000     13013     13015     13009     13000     13013     13016
     13010     13009     13000     13013     13011     13009     13000     13013
     13012     13009     13000     13013     13013     13016     13023     13019
     13014     13013     13016     13017     13014     13013     13016     13018
     13014     13013     13016     13023     13015     13013     13016     13017
     13015     13013     13016     13018     13015     13013     13016     13023
     13016     13023     13019     13020     13016     13023     13019     13021
     13016     13023     13019     13022     13017     13016     13023     13019
     13018     13016     13023     13019     13019     13022     13024     13025
     13019     13022     13024     13026     13019     13022     13024     13029
     13020     13019     13022     13024     13021     13019     13022     13024
     13022     13024     13029     13027     13022     13024     13029     13030
     13022     13024     13029     13031     13023     13019     13022     13024
     13024     13029     13027     13028     13024     13029     13027     13079
     13024     13029     13031     13032     13024     13029     13031     13033
     13024     13029     13031     13035     13025     13024     13029     13027
     13025     13024     13029     13030     13025     13024     13029     13031
     13026     13024     13029     13027     13026     13024     13029     13030
     13026     13024     13029     13031     13027     13029     13031     13032
     13027     13029     13031     13033     13027     13029     13031     13035
     13027     13079     13081     13082     13027     13079     13081     13083
     13027     13079     13081     13084     13028     13027     13029     13030
     13028     13027     13029     13031     13028     13027     13079     13080
     13028     13027     13079     13081     13029     13027     13079     13080
     13029     13027     13079     13081     13029     13031     13033     13034
     13029     13031     13035     13036     13029     13031     13035     13037
     13030     13029     13027     13079     13030     13029     13031     13032
     13030     13029     13031     13033     13030     13029     13031     13035
     13031     13029     13027     13079     13031     13035     13037     13038
     13031     13035     13037     13039     13032     13031     13033     13034
     13032     13031     13035     13036     13032     13031     13035     13037
     13033     13031     13035     13036     13033     13031     13035     13037
     13034     13033     13031     13035     13035     13037     13039     13040
     13035     13037     13039     13041     13035     13037     13039     13042
     13036     13035     13037     13038     13036     13035     13037     13039
     13037     13039     13042     13043     13037     13039     13042     13044
     13037     13039     13042     13045     13038     13037     13039     13040
     13038     13037     13039     13041     13038     13037     13039     13042
     13039     13042     13045     13046     13039     13042     13045     13047
     13039     13042     13045     13048     13040     13039     13042     13043
     13040     13039     13042     13044     13040     13039     13042     13045
     13041     13039     13042     13043     13041     13039     13042     13044
     13041     13039     13042     13045     13042     13045     13048     13049
     13042     13045     13048     13050     13042     13045     13048     13051
     13043     13042     13045     13046     13043     13042     13045     13047
     13043     13042     13045     13048     13044     13042     13045     13046
     13044     13042     13045     13047     13044     13042     13045     13048
     13045     13048     13051     13052     13045     13048     13051     13053
     13045     13048     13051     13054     13046     13045     13048     13049
     13046     13045     13048     13050     13046     13045     13048     13051
     13047     13045     13048     13049     13047     13045     13048     13050
     13047     13045     13048     13051     13048     13051     13054     13055
     13048     13051     13054     13056     13048     13051     13054     13057
     13049     13048     13051     13052     13049     13048     13051     13053
     13049     13048     13051     13054     13050     13048     13051     13052
     13050     13048     13051     13053     13050     13048     13051     13054
     13051     13054     13057     13058     13051     13054     13057     13059
     13051     13054     13057     13060     13052     13051     13054     13055
     13052     13051     13054     13056     13052     13051     13054     13057
     13053     13051     13054     13055     13053     13051     13054     13056
     13053     13051     13054     13057     13054     13057     13060     13061
     13054     13057     13060     13062     13054     13057     13060     13063
     13055     13054     13057     13058     13055     13054     13057     13059
     13055     13054     13057     13060     13056     13054     13057     13058
     13056     13054     13057     13059     13056     13054     13057     13060
     13057     13060     13063     13064     13057     13060     13063     13065
     13057     13060     13063     13066     13058     13057     13060     13061
     13058     13057     13060     13062     13058     13057     13060     13063
     13059     13057     13060     13061     13059     13057     13060     13062
     13059     13057     13060     13063     13060     13063     13066     13067
     13060     13063     13066     13068     13060     13063     13066     13069
     13061     13060     13063     13064     13061     13060     13063     13065
     13061     13060     13063     13066     13062     13060     13063     13064
     13062     13060     13063     13065     13062     13060     13063     13066
     13063     13066     13069     13070     13063     13066     13069     13071
     13063     13066     13069     13072     13064     13063     13066     13067
     13064     13063     13066     13068     13064     13063     13066     13069
     13065     13063     13066     13067     13065     13063     13066     13068
     13065     13063     13066     13069     13066     13069     13072     13073
     13066     13069     13072     13074     13066     13069     13072     13075
     13067     13066     13069     13070     13067     13066     13069     13071
     13067     13066     13069     13072     13068     13066     13069     13070
     13068     13066     13069     13071     13068     13066     13069     13072
     13069     13072     13075     13076     13069     13072     13075     13077
     13069     13072     13075     13078     13070     13069     13072     13073
     13070     13069     13072     13074     13070     13069     13072     13075
     13071     13069     13072     13073     13071     13069     13072     13074
     13071     13069     13072     13075     13073     13072     13075     13076
     13073     13072     13075     13077     13073     13072     13075     13078
     13074     13072     13075     13076     13074     13072     13075     13077
     13074     13072     13075     13078     13079     13081     13084     13085
     13079     13081     13084     13086     13079     13081     13084     13087
     13080     13079     13081     13082     13080     13079     13081     13083
     13080     13079     13081     13084     13081     13084     13087     13088
     13081     13084     13087     13089     13081     13084     13087     13090
     13082     13081     13084     13085     13082     13081     13084     13086
     13082     13081     13084     13087     13083     13081     13084     13085
     13083     13081     13084     13086     13083     13081     13084     13087
     13084     13087     13090     13091     13084     13087     13090     13092
     13084     13087     13090     13093     13085     13084     13087     13088
     13085     13084     13087     13089     13085     13084     13087     13090
     13086     13084     13087     13088     13086     13084     13087     13089
     13086     13084     13087     13090     13087     13090     13093     13094
     13087     13090     13093     13095     13087     13090     13093     13096
     13088     13087     13090     13091     13088     13087     13090     13092
     13088     13087     13090     13093     13089     13087     13090     13091
     13089     13087     13090     13092     13089     13087     13090     13093
     13090     13093     13096     13097     13090     13093     13096     13098
     13090     13093     13096     13099     13091     13090     13093     13094
     13091     13090     13093     13095     13091     13090     13093     13096
     13092     13090     13093     13094     13092     13090     13093     13095
     13092     13090     13093     13096     13093     13096     13099     13100
     13093     13096     13099     13101     13093     13096     13099     13102
     13094     13093     13096     13097     13094     13093     13096     13098
     13094     13093     13096     13099     13095     13093     13096     13097
     13095     13093     13096     13098     13095     13093     13096     13099
     13096     13099     13102     13103     13096     13099     13102     13104
     13097     13096     13099     13100     13097     13096     13099     13101
     13097     13096     13099     13102     13098     13096     13099     13100
     13098     13096     13099     13101     13098     13096     13099     13102
     13099     13102     13104     13105     13099     13102     13104     13106
     13100     13099     13102     13103     13100     13099     13102     13104
     13101     13099     13102     13103     13101     13099     13102     13104
     13102     13104     13106     13107     13102     13104     13106     13108
     13102     13104     13106     13109     13103     13102     13104     13105
     13103     13102     13104     13106     13104     13106     13109     13110
     13104     13106     13109     13111     13104     13106     13109     13112
     13105     13104     13106     13107     13105     13104     13106     13108
     13105     13104     13106     13109     13106     13109     13112     13113
     13106     13109     13112     13114     13106     13109     13112     13115
     13107     13106     13109     13110     13107     13106     13109     13111
     13107     13106     13109     13112     13108     13106     13109     13110
     13108     13106     13109     13111     13108     13106     13109     13112
     13109     13112     13115     13116     13109     13112     13115     13117
     13109     13112     13115     13118     13110     13109     13112     13113
     13110     13109     13112     13114     13110     13109     13112     13115
     13111     13109     13112     13113     13111     13109     13112     13114
     13111     13109     13112     13115     13112     13115     13118     13119
     13112     13115     13118     13120     13112     13115     13118     13121
     13113     13112     13115     13116     13113     13112     13115     13117
     13113     13112     13115     13118     13114     13112     13115     13116
     13114     13112     13115     13117     13114     13112     13115     13118
     13115     13118     13121     13122     13115     13118     13121     13123
     13115     13118     13121     13124     13116     13115     13118     13119
     13116     13115     13118     13120     13116     13115     13118     13121
     13117     13115     13118     13119     13117     13115     13118     13120
     13117     13115     13118     13121     13118     13121     13124     13125
     13118     13121     13124     13126     13118     13121     13124     13127
     13119     13118     13121     13122     13119     13118     13121     13123
     13119     13118     13121     13124     13120     13118     13121     13122
     13120     13118     13121     13123     13120     13118     13121     13124
     13121     13124     13127     13128     13121     13124     13127     13129
     13121     13124     13127     13130     13122     13121     13124     13125
     13122     13121     13124     13126     13122     13121     13124     13127
     13123     13121     13124     13125     13123     13121     13124     13126
     13123     13121     13124     13127     13125     13124     13127     13128
     13125     13124     13127     13129     13125     13124     13127     13130
     13126     13124     13127     13128     13126     13124     13127     13129
     13126     13124     13127     13130     13131     13144     13147     13148
     13131     13144     13147     13149     13131     13144     13147     13154
     13132     13131     13136     13137     13132     13131     13136     13138
     13132     13131     13136     13139     13132     13131     13140     13141
     13132     13131     13140     13142     13132     13131     13140     13143
     13132     13131     13144     13145     13132     13131     13144     13146
     13132     13131     13144     13147     13133     13132     13131     13136
     13133     13132     13131     13140     13133     13132     13131     13144
     13134     13132     13131     13136     13134     13132     13131     13140
     13134     13132     13131     13144     13135     13132     13131     13136
     13135     13132     13131     13140     13135     13132     13131     13144
     13136     13131     13140     13141     13136     13131     13140     13142
     13136     13131     13140     13143     13136     13131     13144     13145
     13136     13131     13144     13146     13136     13131     13144     13147
     13137     13136     13131     13140     13137     13136     13131     13144
     13138     13136     13131     13140     13138     13136     13131     13144
     13139     13136     13131     13140     13139     13136     13131     13144
     13140     13131     13144     13145     13140     13131     13144     13146
     13140     13131     13144     13147     13141     13140     13131     13144
     13142     13140     13131     13144     13143     13140     13131     13144
     13144     13147     13154     13150     13145     13144     13147     13148
     13145     13144     13147     13149     13145     13144     13147     13154
     13146     13144     13147     13148     13146     13144     13147     13149
     13146     13144     13147     13154     13147     13154     13150     13151
     13147     13154     13150     13152     13147     13154     13150     13153
     13148     13147     13154     13150     13149     13147     13154     13150
     13150     13153     13155     13156     13150     13153     13155     13157
     13150     13153     13155     13160     13151     13150     13153     13155
     13152     13150     13153     13155     13153     13155     13160     13158
     13153     13155     13160     13161     13153     13155     13160     13162
     13154     13150     13153     13155     13155     13160     13158     13159
     13155     13160     13158     13210     13155     13160     13162     13163
     13155     13160     13162     13164     13155     13160     13162     13166
     13156     13155     13160     13158     13156     13155     13160     13161
     13156     13155     13160     13162     13157     13155     13160     13158
     13157     13155     13160     13161     13157     13155     13160     13162
     13158     13160     13162     13163     13158     13160     13162     13164
     13158     13160     13162     13166     13158     13210     13212     13213
     13158     13210     13212     13214     13158     13210     13212     13215
     13159     13158     13160     13161     13159     13158     13160     13162
     13159     13158     13210     13211     13159     13158     13210     13212
     13160     13158     13210     13211     13160     13158     13210     13212
     13160     13162     13164     13165     13160     13162     13166     13167
     13160     13162     13166     13168     13161     13160     13158     13210
     13161     13160     13162     13163     13161     13160     13162     13164
     13161     13160     13162     13166     13162     13160     13158     13210
     13162     13166     13168     13169     13162     13166     13168     13170
     13163     13162     13164     13165     13163     13162     13166     13167
     13163     13162     13166     13168     13164     13162     13166     13167
     13164     13162     13166     13168     13165     13164     13162     13166
     13166     13168     13170     13171     13166     13168     13170     13172
     13166     13168     13170     13173     13167     13166     13168     13169
     13167     13166     13168     13170     13168     13170     13173     13174
     13168     13170     13173     13175     13168     13170     13173     13176
     13169     13168     13170     13171     13169     13168     13170     13172
     13169     13168     13170     13173     13170     13173     13176     13177
     13170     13173     13176     13178     13170     13173     13176     13179
     13171     13170     13173     13174     13171     13170     13173     13175
     13171     13170     13173     13176     13172     13170     13173     13174
     13172     13170     13173     13175     13172     13170     13173     13176
     13173     13176     13179     13180     13173     13176     13179     13181
     13173     13176     13179     13182     13174     13173     13176     13177
     13174     13173     13176     13178     13174     13173     13176     13179
     13175     13173     13176     13177     13175     13173     13176     13178
     13175     13173     13176     13179     13176     13179     13182     13183
     13176     13179     13182     13184     13176     13179     13182     13185
     13177     13176     13179     13180     13177     13176     13179     13181
     13177     13176     13179     13182     13178     13176     13179     13180
     13178     13176     13179     13181     13178     13176     13179     13182
     13179     13182     13185     13186     13179     13182     13185     13187
     13179     13182     13185     13188     13180     13179     13182     13183
     13180     13179     13182     13184     13180     13179     13182     13185
     13181     13179     13182     13183     13181     13179     13182     13184
     13181     13179     13182     13185     13182     13185     13188     13189
     13182     13185     13188     13190     13182     13185     13188     13191
     13183     13182     13185     13186     13183     13182     13185     13187
     13183     13182     13185     13188     13184     13182     13185     13186
     13184     13182     13185     13187     13184     13182     13185     13188
     13185     13188     13191     13192     13185     13188     13191     13193
     13185     13188     13191     13194     13186     13185     13188     13189
     13186     13185     13188     13190     13186     13185     13188     13191
     13187     13185     13188     13189     13187     13185     13188     13190
     13187     13185     13188     13191     13188     13191     13194     13195
     13188     13191     13194     13196     13188     13191     13194     13197
     13189     13188     13191     13192     13189     13188     13191     13193
     13189     13188     13191     13194     13190     13188     13191     13192
     13190     13188     13191     13193     13190     13188     13191     13194
     13191     13194     13197     13198     13191     13194     13197     13199
     13191     13194     13197     13200     13192     13191     13194     13195
     13192     13191     13194     13196     13192     13191     13194     13197
     13193     13191     13194     13195     13193     13191     13194     13196
     13193     13191     13194     13197     13194     13197     13200     13201
     13194     13197     13200     13202     13194     13197     13200     13203
     13195     13194     13197     13198     13195     13194     13197     13199
     13195     13194     13197     13200     13196     13194     13197     13198
     13196     13194     13197     13199     13196     13194     13197     13200
     13197     13200     13203     13204     13197     13200     13203     13205
     13197     13200     13203     13206     13198     13197     13200     13201
     13198     13197     13200     13202     13198     13197     13200     13203
     13199     13197     13200     13201     13199     13197     13200     13202
     13199     13197     13200     13203     13200     13203     13206     13207
     13200     13203     13206     13208     13200     13203     13206     13209
     13201     13200     13203     13204     13201     13200     13203     13205
     13201     13200     13203     13206     13202     13200     13203     13204
     13202     13200     13203     13205     13202     13200     13203     13206
     13204     13203     13206     13207     13204     13203     13206     13208
     13204     13203     13206     13209     13205     13203     13206     13207
     13205     13203     13206     13208     13205     13203     13206     13209
     13210     13212     13215     13216     13210     13212     13215     13217
     13210     13212     13215     13218     13211     13210     13212     13213
     13211     13210     13212     13214     13211     13210     13212     13215
     13212     13215     13218     13219     13212     13215     13218     13220
     13212     13215     13218     13221     13213     13212     13215     13216
     13213     13212     13215     13217     13213     13212     13215     13218
     13214     13212     13215     13216     13214     13212     13215     13217
     13214     13212     13215     13218     13215     13218     13221     13222
     13215     13218     13221     13223     13215     13218     13221     13224
     13216     13215     13218     13219     13216     13215     13218     13220
     13216     13215     13218     13221     13217     13215     13218     13219
     13217     13215     13218     13220     13217     13215     13218     13221
     13218     13221     13224     13225     13218     13221     13224     13226
     13218     13221     13224     13227     13219     13218     13221     13222
     13219     13218     13221     13223     13219     13218     13221     13224
     13220     13218     13221     13222     13220     13218     13221     13223
     13220     13218     13221     13224     13221     13224     13227     13228
     13221     13224     13227     13229     13221     13224     13227     13230
     13222     13221     13224     13225     13222     13221     13224     13226
     13222     13221     13224     13227     13223     13221     13224     13225
     13223     13221     13224     13226     13223     13221     13224     13227
     13224     13227     13230     13231     13224     13227     13230     13232
     13224     13227     13230     13233     13225     13224     13227     13228
     13225     13224     13227     13229     13225     13224     13227     13230
     13226     13224     13227     13228     13226     13224     13227     13229
     13226     13224     13227     13230     13227     13230     13233     13234
     13227     13230     13233     13235     13228     13227     13230     13231
     13228     13227     13230     13232     13228     13227     13230     13233
     13229     13227     13230     13231     13229     13227     13230     13232
     13229     13227     13230     13233     13230     13233     13235     13236
     13230     13233     13235     13237     13231     13230     13233     13234
     13231     13230     13233     13235     13232     13230     13233     13234
     13232     13230     13233     13235     13233     13235     13237     13238
     13233     13235     13237     13239     13233     13235     13237     13240
     13234     13233     13235     13236     13234     13233     13235     13237
     13235     13237     13240     13241     13235     13237     13240     13242
     13235     13237     13240     13243     13236     13235     13237     13238
     13236     13235     13237     13239     13236     13235     13237     13240
     13237     13240     13243     13244     13237     13240     13243     13245
     13237     13240     13243     13246     13238     13237     13240     13241
     13238     13237     13240     13242     13238     13237     13240     13243
     13239     13237     13240     13241     13239     13237     13240     13242
     13239     13237     13240     13243     13240     13243     13246     13247
     13240     13243     13246     13248     13240     13243     13246     13249
     13241     13240     13243     13244     13241     13240     13243     13245
     13241     13240     13243     13246     13242     13240     13243     13244
     13242     13240     13243     13245     13242     13240     13243     13246
     13243     13246     13249     13250     13243     13246     13249     13251
     13243     13246     13249     13252     13244     13243     13246     13247
     13244     13243     13246     13248     13244     13243     13246     13249
     13245     13243     13246     13247     13245     13243     13246     13248
     13245     13243     13246     13249     13246     13249     13252     13253
     13246     13249     13252     13254     13246     13249     13252     13255
     13247     13246     13249     13250     13247     13246     13249     13251
     13247     13246     13249     13252     13248     13246     13249     13250
     13248     13246     13249     13251     13248     13246     13249     13252
     13249     13252     13255     13256     13249     13252     13255     13257
     13249     13252     13255     13258     13250     13249     13252     13253
     13250     13249     13252     13254     13250     13249     13252     13255
     13251     13249     13252     13253     13251     13249     13252     13254
     13251     13249     13252     13255     13252     13255     13258     13259
     13252     13255     13258     13260     13252     13255     13258     13261
     13253     13252     13255     13256     13253     13252     13255     13257
     13253     13252     13255     13258     13254     13252     13255     13256
     13254     13252     13255     13257     13254     13252     13255     13258
     13256     13255     13258     13259     13256     13255     13258     13260
     13256     13255     13258     13261     13257     13255     13258     13259
     13257     13255     13258     13260     13257     13255     13258     13261
     13262     13275     13278     13279     13262     13275     13278     13280
     13262     13275     13278     13285     13263     13262     13267     13268
     13263     13262     13267     13269     13263     13262     13267     13270
     13263     13262     13271     13272     13263     13262     13271     13273
     13263     13262     13271     13274     13263     13262     13275     13276
     13263     13262     13275     13277     13263     13262     13275     13278
     13264     13263     13262     13267     13264     13263     13262     13271
     13264     13263     13262     13275     13265     13263     13262     13267
     13265     13263     13262     13271     13265     13263     13262     13275
     13266     13263     13262     13267     13266     13263     13262     13271
     13266     13263     13262     13275     13267     13262     13271     13272
     13267     13262     13271     13273     13267     13262     13271     13274
     13267     13262     13275     13276     13267     13262     13275     13277
     13267     13262     13275     13278     13268     13267     13262     13271
     13268     13267     13262     13275     13269     13267     13262     13271
     13269     13267     13262     13275     13270     13267     13262     13271
     13270     13267     13262     13275     13271     13262     13275     13276
     13271     13262     13275     13277     13271     13262     13275     13278
     13272     13271     13262     13275     13273     13271     13262     13275
     13274     13271     13262     13275     13275     13278     13285     13281
     13276     13275     13278     13279     13276     13275     13278     13280
     13276     13275     13278     13285     13277     13275     13278     13279
     13277     13275     13278     13280     13277     13275     13278     13285
     13278     13285     13281     13282     13278     13285     13281     13283
     13278     13285     13281     13284     13279     13278     13285     13281
     13280     13278     13285     13281     13281     13284     13286     13287
     13281     13284     13286     13288     13281     13284     13286     13291
     13282     13281     13284     13286     13283     13281     13284     13286
     13284     13286     13291     13289     13284     13286     13291     13292
     13284     13286     13291     13293     13285     13281     13284     13286
     13286     13291     13289     13290     13286     13291     13289     13341
     13286     13291     13293     13294     13286     13291     13293     13295
     13286     13291     13293     13297     13287     13286     13291     13289
     13287     13286     13291     13292     13287     13286     13291     13293
     13288     13286     13291     13289     13288     13286     13291     13292
     13288     13286     13291     13293     13289     13291     13293     13294
     13289     13291     13293     13295     13289     13291     13293     13297
     13289     13341     13343     13344     13289     13341     13343     13345
     13289     13341     13343     13346     13290     13289     13291     13292
     13290     13289     13291     13293     13290     13289     13341     13342
     13290     13289     13341     13343     13291     13289     13341     13342
     13291     13289     13341     13343     13291     13293     13295     13296
     13291     13293     13297     13298     13291     13293     13297     13299
     13292     13291     13289     13341     13292     13291     13293     13294
     13292     13291     13293     13295     13292     13291     13293     13297
     13293     13291     13289     13341     13293     13297     13299     13300
     13293     13297     13299     13301     13294     13293     13295     13296
     13294     13293     13297     13298     13294     13293     13297     13299
     13295     13293     13297     13298     13295     13293     13297     13299
     13296     13295     13293     13297     13297     13299     13301     13302
     13297     13299     13301     13303     13297     13299     13301     13304
     13298     13297     13299     13300     13298     13297     13299     13301
     13299     13301     13304     13305     13299     13301     13304     13306
     13299     13301     13304     13307     13300     13299     13301     13302
     13300     13299     13301     13303     13300     13299     13301     13304
     13301     13304     13307     13308     13301     13304     13307     13309
     13301     13304     13307     13310     13302     13301     13304     13305
     13302     13301     13304     13306     13302     13301     13304     13307
     13303     13301     13304     13305     13303     13301     13304     13306
     13303     13301     13304     13307     13304     13307     13310     13311
     13304     13307     13310     13312     13304     13307     13310     13313
     13305     13304     13307     13308     13305     13304     13307     13309
     13305     13304     13307     13310     13306     13304     13307     13308
     13306     13304     13307     13309     13306     13304     13307     13310
     13307     13310     13313     13314     13307     13310     13313     13315
     13307     13310     13313     13316     13308     13307     13310     13311
     13308     13307     13310     13312     13308     13307     13310     13313
     13309     13307     13310     13311     13309     13307     13310     13312
     13309     13307     13310     13313     13310     13313     13316     13317
     13310     13313     13316     13318     13310     13313     13316     13319
     13311     13310     13313     13314     13311     13310     13313     13315
     13311     13310     13313     13316     13312     13310     13313     13314
     13312     13310     13313     13315     13312     13310     13313     13316
     13313     13316     13319     13320     13313     13316     13319     13321
     13313     13316     13319     13322     13314     13313     13316     13317
     13314     13313     13316     13318     13314     13313     13316     13319
     13315     13313     13316     13317     13315     13313     13316     13318
     13315     13313     13316     13319     13316     13319     13322     13323
     13316     13319     13322     13324     13316     13319     13322     13325
     13317     13316     13319     13320     13317     13316     13319     13321
     13317     13316     13319     13322     13318     13316     13319     13320
     13318     13316     13319     13321     13318     13316     13319     13322
     13319     13322     13325     13326     13319     13322     13325     13327
     13319     13322     13325     13328     13320     13319     13322     13323
     13320     13319     13322     13324     13320     13319     13322     13325
     13321     13319     13322     13323     13321     13319     13322     13324
     13321     13319     13322     13325     13322     13325     13328     13329
     13322     13325     13328     13330     13322     13325     13328     13331
     13323     13322     13325     13326     13323     13322     13325     13327
     13323     13322     13325     13328     13324     13322     13325     13326
     13324     13322     13325     13327     13324     13322     13325     13328
     13325     13328     13331     13332     13325     13328     13331     13333
     13325     13328     13331     13334     13326     13325     13328     13329
     13326     13325     13328     13330     13326     13325     13328     13331
     13327     13325     13328     13329     13327     13325     13328     13330
     13327     13325     13328     13331     13328     13331     13334     13335
     13328     13331     13334     13336     13328     13331     13334     13337
     13329     13328     13331     13332     13329     13328     13331     13333
     13329     13328     13331     13334     13330     13328     13331     13332
     13330     13328     13331     13333     13330     13328     13331     13334
     13331     13334     13337     13338     13331     13334     13337     13339
     13331     13334     13337     13340     13332     13331     13334     13335
     13332     13331     13334     13336     13332     13331     13334     13337
     13333     13331     13334     13335     13333     13331     13334     13336
     13333     13331     13334     13337     13335     13334     13337     13338
     13335     13334     13337     13339     13335     13334     13337     13340
     13336     13334     13337     13338     13336     13334     13337     13339
     13336     13334     13337     13340     13341     13343     13346     13347
     13341     13343     13346     13348     13341     13343     13346     13349
     13342     13341     13343     13344     13342     13341     13343     13345
     13342     13341     13343     13346     13343     13346     13349     13350
     13343     13346     13349     13351     13343     13346     13349     13352
     13344     13343     13346     13347     13344     13343     13346     13348
     13344     13343     13346     13349     13345     13343     13346     13347
     13345     13343     13346     13348     13345     13343     13346     13349
     13346     13349     13352     13353     13346     13349     13352     13354
     13346     13349     13352     13355     13347     13346     13349     13350
     13347     13346     13349     13351     13347     13346     13349     13352
     13348     13346     13349     13350     13348     13346     13349     13351
     13348     13346     13349     13352     13349     13352     13355     13356
     13349     13352     13355     13357     13349     13352     13355     13358
     13350     13349     13352     13353     13350     13349     13352     13354
     13350     13349     13352     13355     13351     13349     13352     13353
     13351     13349     13352     13354     13351     13349     13352     13355
     13352     13355     13358     13359     13352     13355     13358     13360
     13352     13355     13358     13361     13353     13352     13355     13356
     13353     13352     13355     13357     13353     13352     13355     13358
     13354     13352     13355     13356     13354     13352     13355     13357
     13354     13352     13355     13358     13355     13358     13361     13362
     13355     13358     13361     13363     13355     13358     13361     13364
     13356     13355     13358     13359     13356     13355     13358     13360
     13356     13355     13358     13361     13357     13355     13358     13359
     13357     13355     13358     13360     13357     13355     13358     13361
     13358     13361     13364     13365     13358     13361     13364     13366
     13359     13358     13361     13362     13359     13358     13361     13363
     13359     13358     13361     13364     13360     13358     13361     13362
     13360     13358     13361     13363     13360     13358     13361     13364
     13361     13364     13366     13367     13361     13364     13366     13368
     13362     13361     13364     13365     13362     13361     13364     13366
     13363     13361     13364     13365     13363     13361     13364     13366
     13364     13366     13368     13369     13364     13366     13368     13370
     13364     13366     13368     13371     13365     13364     13366     13367
     13365     13364     13366     13368     13366     13368     13371     13372
     13366     13368     13371     13373     13366     13368     13371     13374
     13367     13366     13368     13369     13367     13366     13368     13370
     13367     13366     13368     13371     13368     13371     13374     13375
     13368     13371     13374     13376     13368     13371     13374     13377
     13369     13368     13371     13372     13369     13368     13371     13373
     13369     13368     13371     13374     13370     13368     13371     13372
     13370     13368     13371     13373     13370     13368     13371     13374
     13371     13374     13377     13378     13371     13374     13377     13379
     13371     13374     13377     13380     13372     13371     13374     13375
     13372     13371     13374     13376     13372     13371     13374     13377
     13373     13371     13374     13375     13373     13371     13374     13376
     13373     13371     13374     13377     13374     13377     13380     13381
     13374     13377     13380     13382     13374     13377     13380     13383
     13375     13374     13377     13378     13375     13374     13377     13379
     13375     13374     13377     13380     13376     13374     13377     13378
     13376     13374     13377     13379     13376     13374     13377     13380
     13377     13380     13383     13384     13377     13380     13383     13385
     13377     13380     13383     13386     13378     13377     13380     13381
     13378     13377     13380     13382     13378     13377     13380     13383
     13379     13377     13380     13381     13379     13377     13380     13382
     13379     13377     13380     13383     13380     13383     13386     13387
     13380     13383     13386     13388     13380     13383     13386     13389
     13381     13380     13383     13384     13381     13380     13383     13385
     13381     13380     13383     13386     13382     13380     13383     13384
     13382     13380     13383     13385     13382     13380     13383     13386
     13383     13386     13389     13390     13383     13386     13389     13391
     13383     13386     13389     13392     13384     13383     13386     13387
     13384     13383     13386     13388     13384     13383     13386     13389
     13385     13383     13386     13387     13385     13383     13386     13388
     13385     13383     13386     13389     13387     13386     13389     13390
     13387     13386     13389     13391     13387     13386     13389     13392
     13388     13386     13389     13390     13388     13386     13389     13391
     13388     13386     13389     13392     13393     13406     13409     13410
     13393     13406     13409     13411     13393     13406     13409     13416
     13394     13393     13398     13399     13394     13393     13398     13400
     13394     13393     13398     13401     13394     13393     13402     13403
     13394     13393     13402     13404     13394     13393     13402     13405
     13394     13393     13406     13407     13394     13393     13406     13408
     13394     13393     13406     13409     13395     13394     13393     13398
     13395     13394     13393     13402     13395     13394     13393     13406
     13396     13394     13393     13398     13396     13394     13393     13402
     13396     13394     13393     13406     13397     13394     13393     13398
     13397     13394     13393     13402     13397     13394     13393     13406
     13398     13393     13402     13403     13398     13393     13402     13404
     13398     13393     13402     13405     13398     13393     13406     13407
     13398     13393     13406     13408     13398     13393     13406     13409
     13399     13398     13393     13402     13399     13398     13393     13406
     13400     13398     13393     13402     13400     13398     13393     13406
     13401     13398     13393     13402     13401     13398     13393     13406
     13402     13393     13406     13407     13402     13393     13406     13408
     13402     13393     13406     13409     13403     13402     13393     13406
     13404     13402     13393     13406     13405     13402     13393     13406
     13406     13409     13416     13412     13407     13406     13409     13410
     13407     13406     13409     13411     13407     13406     13409     13416
     13408     13406     13409     13410     13408     13406     13409     13411
     13408     13406     13409     13416     13409     13416     13412     13413
     13409     13416     13412     13414     13409     13416     13412     13415
     13410     13409     13416     13412     13411     13409     13416     13412
     13412     13415     13417     13418     13412     13415     13417     13419
     13412     13415     13417     13422     13413     13412     13415     13417
     13414     13412     13415     13417     13415     13417     13422     13420
     13415     13417     13422     13423     13415     13417     13422     13424
     13416     13412     13415     13417     13417     13422     13420     13421
     13417     13422     13420     13472     13417     13422     13424     13425
     13417     13422     13424     13426     13417     13422     13424     13428
     13418     13417     13422     13420     13418     13417     13422     13423
     13418     13417     13422     13424     13419     13417     13422     13420
     13419     13417     13422     13423     13419     13417     13422     13424
     13420     13422     13424     13425     13420     13422     13424     13426
     13420     13422     13424     13428     13420     13472     13474     13475
     13420     13472     13474     13476     13420     13472     13474     13477
     13421     13420     13422     13423     13421     13420     13422     13424
     13421     13420     13472     13473     13421     13420     13472     13474
     13422     13420     13472     13473     13422     13420     13472     13474
     13422     13424     13426     13427     13422     13424     13428     13429
     13422     13424     13428     13430     13423     13422     13420     13472
     13423     13422     13424     13425     13423     13422     13424     13426
     13423     13422     13424     13428     13424     13422     13420     13472
     13424     13428     13430     13431     13424     13428     13430     13432
     13425     13424     13426     13427     13425     13424     13428     13429
     13425     13424     13428     13430     13426     13424     13428     13429
     13426     13424     13428     13430     13427     13426     13424     13428
     13428     13430     13432     13433     13428     13430     13432     13434
     13428     13430     13432     13435     13429     13428     13430     13431
     13429     13428     13430     13432     13430     13432     13435     13436
     13430     13432     13435     13437     13430     13432     13435     13438
     13431     13430     13432     13433     13431     13430     13432     13434
     13431     13430     13432     13435     13432     13435     13438     13439
     13432     13435     13438     13440     13432     13435     13438     13441
     13433     13432     13435     13436     13433     13432     13435     13437
     13433     13432     13435     13438     13434     13432     13435     13436
     13434     13432     13435     13437     13434     13432     13435     13438
     13435     13438     13441     13442     13435     13438     13441     13443
     13435     13438     13441     13444     13436     13435     13438     13439
     13436     13435     13438     13440     13436     13435     13438     13441
     13437     13435     13438     13439     13437     13435     13438     13440
     13437     13435     13438     13441     13438     13441     13444     13445
     13438     13441     13444     13446     13438     13441     13444     13447
     13439     13438     13441     13442     13439     13438     13441     13443
     13439     13438     13441     13444     13440     13438     13441     13442
     13440     13438     13441     13443     13440     13438     13441     13444
     13441     13444     13447     13448     13441     13444     13447     13449
     13441     13444     13447     13450     13442     13441     13444     13445
     13442     13441     13444     13446     13442     13441     13444     13447
     13443     13441     13444     13445     13443     13441     13444     13446
     13443     13441     13444     13447     13444     13447     13450     13451
     13444     13447     13450     13452     13444     13447     13450     13453
     13445     13444     13447     13448     13445     13444     13447     13449
     13445     13444     13447     13450     13446     13444     13447     13448
     13446     13444     13447     13449     13446     13444     13447     13450
     13447     13450     13453     13454     13447     13450     13453     13455
     13447     13450     13453     13456     13448     13447     13450     13451
     13448     13447     13450     13452     13448     13447     13450     13453
     13449     13447     13450     13451     13449     13447     13450     13452
     13449     13447     13450     13453     13450     13453     13456     13457
     13450     13453     13456     13458     13450     13453     13456     13459
     13451     13450     13453     13454     13451     13450     13453     13455
     13451     13450     13453     13456     13452     13450     13453     13454
     13452     13450     13453     13455     13452     13450     13453     13456
     13453     13456     13459     13460     13453     13456     13459     13461
     13453     13456     13459     13462     13454     13453     13456     13457
     13454     13453     13456     13458     13454     13453     13456     13459
     13455     13453     13456     13457     13455     13453     13456     13458
     13455     13453     13456     13459     13456     13459     13462     13463
     13456     13459     13462     13464     13456     13459     13462     13465
     13457     13456     13459     13460     13457     13456     13459     13461
     13457     13456     13459     13462     13458     13456     13459     13460
     13458     13456     13459     13461     13458     13456     13459     13462
     13459     13462     13465     13466     13459     13462     13465     13467
     13459     13462     13465     13468     13460     13459     13462     13463
     13460     13459     13462     13464     13460     13459     13462     13465
     13461     13459     13462     13463     13461     13459     13462     13464
     13461     13459     13462     13465     13462     13465     13468     13469
     13462     13465     13468     13470     13462     13465     13468     13471
     13463     13462     13465     13466     13463     13462     13465     13467
     13463     13462     13465     13468     13464     13462     13465     13466
     13464     13462     13465     13467     13464     13462     13465     13468
     13466     13465     13468     13469     13466     13465     13468     13470
     13466     13465     13468     13471     13467     13465     13468     13469
     13467     13465     13468     13470     13467     13465     13468     13471
     13472     13474     13477     13478     13472     13474     13477     13479
     13472     13474     13477     13480     13473     13472     13474     13475
     13473     13472     13474     13476     13473     13472     13474     13477
     13474     13477     13480     13481     13474     13477     13480     13482
     13474     13477     13480     13483     13475     13474     13477     13478
     13475     13474     13477     13479     13475     13474     13477     13480
     13476     13474     13477     13478     13476     13474     13477     13479
     13476     13474     13477     13480     13477     13480     13483     13484
     13477     13480     13483     13485     13477     13480     13483     13486
     13478     13477     13480     13481     13478     13477     13480     13482
     13478     13477     13480     13483     13479     13477     13480     13481
     13479     13477     13480     13482     13479     13477     13480     13483
     13480     13483     13486     13487     13480     13483     13486     13488
     13480     13483     13486     13489     13481     13480     13483     13484
     13481     13480     13483     13485     13481     13480     13483     13486
     13482     13480     13483     13484     13482     13480     13483     13485
     13482     13480     13483     13486     13483     13486     13489     13490
     13483     13486     13489     13491     13483     13486     13489     13492
     13484     13483     13486     13487     13484     13483     13486     13488
     13484     13483     13486     13489     13485     13483     13486     13487
     13485     13483     13486     13488     13485     13483     13486     13489
     13486     13489     13492     13493     13486     13489     13492     13494
     13486     13489     13492     13495     13487     13486     13489     13490
     13487     13486     13489     13491     13487     13486     13489     13492
     13488     13486     13489     13490     13488     13486     13489     13491
     13488     13486     13489     13492     13489     13492     13495     13496
     13489     13492     13495     13497     13490     13489     13492     13493
     13490     13489     13492     13494     13490     13489     13492     13495
     13491     13489     13492     13493     13491     13489     13492     13494
     13491     13489     13492     13495     13492     13495     13497     13498
     13492     13495     13497     13499     13493     13492     13495     13496
     13493     13492     13495     13497     13494     13492     13495     13496
     13494     13492     13495     13497     13495     13497     13499     13500
     13495     13497     13499     13501     13495     13497     13499     13502
     13496     13495     13497     13498     13496     13495     13497     13499
     13497     13499     13502     13503     13497     13499     13502     13504
     13497     13499     13502     13505     13498     13497     13499     13500
     13498     13497     13499     13501     13498     13497     13499     13502
     13499     13502     13505     13506     13499     13502     13505     13507
     13499     13502     13505     13508     13500     13499     13502     13503
     13500     13499     13502     13504     13500     13499     13502     13505
     13501     13499     13502     13503     13501     13499     13502     13504
     13501     13499     13502     13505     13502     13505     13508     13509
     13502     13505     13508     13510     13502     13505     13508     13511
     13503     13502     13505     13506     13503     13502     13505     13507
     13503     13502     13505     13508     13504     13502     13505     13506
     13504     13502     13505     13507     13504     13502     13505     13508
     13505     13508     13511     13512     13505     13508     13511     13513
     13505     13508     13511     13514     13506     13505     13508     13509
     13506     13505     13508     13510     13506     13505     13508     13511
     13507     13505     13508     13509     13507     13505     13508     13510
     13507     13505     13508     13511     13508     13511     13514     13515
     13508     13511     13514     13516     13508     13511     13514     13517
     13509     13508     13511     13512     13509     13508     13511     13513
     13509     13508     13511     13514     13510     13508     13511     13512
     13510     13508     13511     13513     13510     13508     13511     13514
     13511     13514     13517     13518     13511     13514     13517     13519
     13511     13514     13517     13520     13512     13511     13514     13515
     13512     13511     13514     13516     13512     13511     13514     13517
     13513     13511     13514     13515     13513     13511     13514     13516
     13513     13511     13514     13517     13514     13517     13520     13521
     13514     13517     13520     13522     13514     13517     13520     13523
     13515     13514     13517     13518     13515     13514     13517     13519
     13515     13514     13517     13520     13516     13514     13517     13518
     13516     13514     13517     13519     13516     13514     13517     13520
     13518     13517     13520     13521     13518     13517     13520     13522
     13518     13517     13520     13523     13519     13517     13520     13521
     13519     13517     13520     13522     13519     13517     13520     13523
     13524     13537     13540     13541     13524     13537     13540     13542
     13524     13537     13540     13547     13525     13524     13529     13530
     13525     13524     13529     13531     13525     13524     13529     13532
     13525     13524     13533     13534     13525     13524     13533     13535
     13525     13524     13533     13536     13525     13524     13537     13538
     13525     13524     13537     13539     13525     13524     13537     13540
     13526     13525     13524     13529     13526     13525     13524     13533
     13526     13525     13524     13537     13527     13525     13524     13529
     13527     13525     13524     13533     13527     13525     13524     13537
     13528     13525     13524     13529     13528     13525     13524     13533
     13528     13525     13524     13537     13529     13524     13533     13534
     13529     13524     13533     13535     13529     13524     13533     13536
     13529     13524     13537     13538     13529     13524     13537     13539
     13529     13524     13537     13540     13530     13529     13524     13533
     13530     13529     13524     13537     13531     13529     13524     13533
     13531     13529     13524     13537     13532     13529     13524     13533
     13532     13529     13524     13537     13533     13524     13537     13538
     13533     13524     13537     13539     13533     13524     13537     13540
     13534     13533     13524     13537     13535     13533     13524     13537
     13536     13533     13524     13537     13537     13540     13547     13543
     13538     13537     13540     13541     13538     13537     13540     13542
     13538     13537     13540     13547     13539     13537     13540     13541
     13539     13537     13540     13542     13539     13537     13540     13547
     13540     13547     13543     13544     13540     13547     13543     13545
     13540     13547     13543     13546     13541     13540     13547     13543
     13542     13540     13547     13543     13543     13546     13548     13549
     13543     13546     13548     13550     13543     13546     13548     13553
     13544     13543     13546     13548     13545     13543     13546     13548
     13546     13548     13553     13551     13546     13548     13553     13554
     13546     13548     13553     13555     13547     13543     13546     13548
     13548     13553     13551     13552     13548     13553     13551     13603
     13548     13553     13555     13556     13548     13553     13555     13557
     13548     13553     13555     13559     13549     13548     13553     13551
     13549     13548     13553     13554     13549     13548     13553     13555
     13550     13548     13553     13551     13550     13548     13553     13554
     13550     13548     13553     13555     13551     13553     13555     13556
     13551     13553     13555     13557     13551     13553     13555     13559
     13551     13603     13605     13606     13551     13603     13605     13607
     13551     13603     13605     13608     13552     13551     13553     13554
     13552     13551     13553     13555     13552     13551     13603     13604
     13552     13551     13603     13605     13553     13551     13603     13604
     13553     13551     13603     13605     13553     13555     13557     13558
     13553     13555     13559     13560     13553     13555     13559     13561
     13554     13553     13551     13603     13554     13553     13555     13556
     13554     13553     13555     13557     13554     13553     13555     13559
     13555     13553     13551     13603     13555     13559     13561     13562
     13555     13559     13561     13563     13556     13555     13557     13558
     13556     13555     13559     13560     13556     13555     13559     13561
     13557     13555     13559     13560     13557     13555     13559     13561
     13558     13557     13555     13559     13559     13561     13563     13564
     13559     13561     13563     13565     13559     13561     13563     13566
     13560     13559     13561     13562     13560     13559     13561     13563
     13561     13563     13566     13567     13561     13563     13566     13568
     13561     13563     13566     13569     13562     13561     13563     13564
     13562     13561     13563     13565     13562     13561     13563     13566
     13563     13566     13569     13570     13563     13566     13569     13571
     13563     13566     13569     13572     13564     13563     13566     13567
     13564     13563     13566     13568     13564     13563     13566     13569
     13565     13563     13566     13567     13565     13563     13566     13568
     13565     13563     13566     13569     13566     13569     13572     13573
     13566     13569     13572     13574     13566     13569     13572     13575
     13567     13566     13569     13570     13567     13566     13569     13571
     13567     13566     13569     13572     13568     13566     13569     13570
     13568     13566     13569     13571     13568     13566     13569     13572
     13569     13572     13575     13576     13569     13572     13575     13577
     13569     13572     13575     13578     13570     13569     13572     13573
     13570     13569     13572     13574     13570     13569     13572     13575
     13571     13569     13572     13573     13571     13569     13572     13574
     13571     13569     13572     13575     13572     13575     13578     13579
     13572     13575     13578     13580     13572     13575     13578     13581
     13573     13572     13575     13576     13573     13572     13575     13577
     13573     13572     13575     13578     13574     13572     13575     13576
     13574     13572     13575     13577     13574     13572     13575     13578
     13575     13578     13581     13582     13575     13578     13581     13583
     13575     13578     13581     13584     13576     13575     13578     13579
     13576     13575     13578     13580     13576     13575     13578     13581
     13577     13575     13578     13579     13577     13575     13578     13580
     13577     13575     13578     13581     13578     13581     13584     13585
     13578     13581     13584     13586     13578     13581     13584     13587
     13579     13578     13581     13582     13579     13578     13581     13583
     13579     13578     13581     13584     13580     13578     13581     13582
     13580     13578     13581     13583     13580     13578     13581     13584
     13581     13584     13587     13588     13581     13584     13587     13589
     13581     13584     13587     13590     13582     13581     13584     13585
     13582     13581     13584     13586     13582     13581     13584     13587
     13583     13581     13584     13585     13583     13581     13584     13586
     13583     13581     13584     13587     13584     13587     13590     13591
     13584     13587     13590     13592     13584     13587     13590     13593
     13585     13584     13587     13588     13585     13584     13587     13589
     13585     13584     13587     13590     13586     13584     13587     13588
     13586     13584     13587     13589     13586     13584     13587     13590
     13587     13590     13593     13594     13587     13590     13593     13595
     13587     13590     13593     13596     13588     13587     13590     13591
     13588     13587     13590     13592     13588     13587     13590     13593
     13589     13587     13590     13591     13589     13587     13590     13592
     13589     13587     13590     13593     13590     13593     13596     13597
     13590     13593     13596     13598     13590     13593     13596     13599
     13591     13590     13593     13594     13591     13590     13593     13595
     13591     13590     13593     13596     13592     13590     13593     13594
     13592     13590     13593     13595     13592     13590     13593     13596
     13593     13596     13599     13600     13593     13596     13599     13601
     13593     13596     13599     13602     13594     13593     13596     13597
     13594     13593     13596     13598     13594     13593     13596     13599
     13595     13593     13596     13597     13595     13593     13596     13598
     13595     13593     13596     13599     13597     13596     13599     13600
     13597     13596     13599     13601     13597     13596     13599     13602
     13598     13596     13599     13600     13598     13596     13599     13601
     13598     13596     13599     13602     13603     13605     13608     13609
     13603     13605     13608     13610     13603     13605     13608     13611
     13604     13603     13605     13606     13604     13603     13605     13607
     13604     13603     13605     13608     13605     13608     13611     13612
     13605     13608     13611     13613     13605     13608     13611     13614
     13606     13605     13608     13609     13606     13605     13608     13610
     13606     13605     13608     13611     13607     13605     13608     13609
     13607     13605     13608     13610     13607     13605     13608     13611
     13608     13611     13614     13615     13608     13611     13614     13616
     13608     13611     13614     13617     13609     13608     13611     13612
     13609     13608     13611     13613     13609     13608     13611     13614
     13610     13608     13611     13612     13610     13608     13611     13613
     13610     13608     13611     13614     13611     13614     13617     13618
     13611     13614     13617     13619     13611     13614     13617     13620
     13612     13611     13614     13615     13612     13611     13614     13616
     13612     13611     13614     13617     13613     13611     13614     13615
     13613     13611     13614     13616     13613     13611     13614     13617
     13614     13617     13620     13621     13614     13617     13620     13622
     13614     13617     13620     13623     13615     13614     13617     13618
     13615     13614     13617     13619     13615     13614     13617     13620
     13616     13614     13617     13618     13616     13614     13617     13619
     13616     13614     13617     13620     13617     13620     13623     13624
     13617     13620     13623     13625     13617     13620     13623     13626
     13618     13617     13620     13621     13618     13617     13620     13622
     13618     13617     13620     13623     13619     13617     13620     13621
     13619     13617     13620     13622     13619     13617     13620     13623
     13620     13623     13626     13627     13620     13623     13626     13628
     13621     13620     13623     13624     13621     13620     13623     13625
     13621     13620     13623     13626     13622     13620     13623     13624
     13622     13620     13623     13625     13622     13620     13623     13626
     13623     13626     13628     13629     13623     13626     13628     13630
     13624     13623     13626     13627     13624     13623     13626     13628
     13625     13623     13626     13627     13625     13623     13626     13628
     13626     13628     13630     13631     13626     13628     13630     13632
     13626     13628     13630     13633     13627     13626     13628     13629
     13627     13626     13628     13630     13628     13630     13633     13634
     13628     13630     13633     13635     13628     13630     13633     13636
     13629     13628     13630     13631     13629     13628     13630     13632
     13629     13628     13630     13633     13630     13633     13636     13637
     13630     13633     13636     13638     13630     13633     13636     13639
     13631     13630     13633     13634     13631     13630     13633     13635
     13631     13630     13633     13636     13632     13630     13633     13634
     13632     13630     13633     13635     13632     13630     13633     13636
     13633     13636     13639     13640     13633     13636     13639     13641
     13633     13636     13639     13642     13634     13633     13636     13637
     13634     13633     13636     13638     13634     13633     13636     13639
     13635     13633     13636     13637     13635     13633     13636     13638
     13635     13633     13636     13639     13636     13639     13642     13643
     13636     13639     13642     13644     13636     13639     13642     13645
     13637     13636     13639     13640     13637     13636     13639     13641
     13637     13636     13639     13642     13638     13636     13639     13640
     13638     13636     13639     13641     13638     13636     13639     13642
     13639     13642     13645     13646     13639     13642     13645     13647
     13639     13642     13645     13648     13640     13639     13642     13643
     13640     13639     13642     13644     13640     13639     13642     13645
     13641     13639     13642     13643     13641     13639     13642     13644
     13641     13639     13642     13645     13642     13645     13648     13649
     13642     13645     13648     13650     13642     13645     13648     13651
     13643     13642     13645     13646     13643     13642     13645     13647
     13643     13642     13645     13648     13644     13642     13645     13646
     13644     13642     13645     13647     13644     13642     13645     13648
     13645     13648     13651     13652     13645     13648     13651     13653
     13645     13648     13651     13654     13646     13645     13648     13649
     13646     13645     13648     13650     13646     13645     13648     13651
     13647     13645     13648     13649     13647     13645     13648     13650
     13647     13645     13648     13651     13649     13648     13651     13652
     13649     13648     13651     13653     13649     13648     13651     13654
     13650     13648     13651     13652     13650     13648     13651     13653
     13650     13648     13651     13654     13655     13656     13671     13672
     13655     13656     13671     13673     13655     13656     13671     13677
     13656     13655     13659     13660     13656     13655     13659     13661
     13656     13655     13659     13662     13656     13655     13663     13664
     13656     13655     13663     13665     13656     13655     13663     13666
     13656     13655     13667     13668     13656     13655     13667     13669
     13656     13655     13667     13670     13656     13671     13677     13674
     13657     13656     13655     13659     13657     13656     13655     13663
     13657     13656     13655     13667     13657     13656     13671     13672
     13657     13656     13671     13673     13657     13656     13671     13677
     13658     13656     13655     13659     13658     13656     13655     13663
     13658     13656     13655     13667     13658     13656     13671     13672
     13658     13656     13671     13673     13658     13656     13671     13677
     13659     13655     13656     13671     13659     13655     13663     13664
     13659     13655     13663     13665     13659     13655     13663     13666
     13659     13655     13667     13668     13659     13655     13667     13669
     13659     13655     13667     13670     13660     13659     13655     13663
     13660     13659     13655     13667     13661     13659     13655     13663
     13661     13659     13655     13667     13662     13659     13655     13663
     13662     13659     13655     13667     13663     13655     13656     13671
     13663     13655     13667     13668     13663     13655     13667     13669
     13663     13655     13667     13670     13664     13663     13655     13667
     13665     13663     13655     13667     13666     13663     13655     13667
     13667     13655     13656     13671     13671     13677     13674     13675
     13671     13677     13674     13676     13671     13677     13674     13678
     13672     13671     13677     13674     13673     13671     13677     13674
     13674     13678     13679     13680     13674     13678     13679     13681
     13674     13678     13679     13682     13675     13674     13678     13679
     13676     13674     13678     13679     13677     13674     13678     13679
     13678     13679     13682     13683     13678     13679     13682     13684
     13678     13679     13682     13690     13679     13682     13684     13685
     13679     13682     13690     13691     13679     13682     13690     13692
     13679     13682     13690     13693     13680     13679     13682     13683
     13680     13679     13682     13684     13680     13679     13682     13690
     13681     13679     13682     13683     13681     13679     13682     13684
     13681     13679     13682     13690     13682     13684     13685     13686
     13682     13684     13685     13687     13682     13690     13693     13694
     13683     13682     13684     13685     13683     13682     13690     13691
     13683     13682     13690     13692     13683     13682     13690     13693
     13684     13682     13690     13691     13684     13682     13690     13692
     13684     13682     13690     13693     13684     13685     13687     13688
     13684     13685     13687     13689     13684     13685     13687     13699
     13685     13684     13682     13690     13685     13687     13699     13700
     13685     13687     13699     13701     13685     13687     13699     13702
     13686     13685     13687     13688     13686     13685     13687     13689
     13686     13685     13687     13699     13687     13699     13702     13703
     13687     13699     13702     13704     13687     13699     13702     13705
     13688     13687     13699     13700     13688     13687     13699     13701
     13688     13687     13699     13702     13689     13687     13699     13700
     13689     13687     13699     13701     13689     13687     13699     13702
     13690     13693     13694     13695     13690     13693     13694     13696
     13691     13690     13693     13694     13692     13690     13693     13694
     13693     13694     13696     13697     13693     13694     13696     13698
     13693     13694     13696     13746     13694     13696     13746     13747
     13694     13696     13746     13748     13694     13696     13746     13749
     13695     13694     13696     13697     13695     13694     13696     13698
     13695     13694     13696     13746     13696     13746     13749     13750
     13696     13746     13749     13751     13696     13746     13749     13752
     13697     13696     13746     13747     13697     13696     13746     13748
     13697     13696     13746     13749     13698     13696     13746     13747
     13698     13696     13746     13748     13698     13696     13746     13749
     13699     13702     13705     13706     13699     13702     13705     13707
     13700     13699     13702     13703     13700     13699     13702     13704
     13700     13699     13702     13705     13701     13699     13702     13703
     13701     13699     13702     13704     13701     13699     13702     13705
     13702     13705     13707     13708     13702     13705     13707     13709
     13703     13702     13705     13706     13703     13702     13705     13707
     13704     13702     13705     13706     13704     13702     13705     13707
     13705     13707     13709     13710     13705     13707     13709     13711
     13705     13707     13709     13712     13706     13705     13707     13708
     13706     13705     13707     13709     13707     13709     13712     13713
     13707     13709     13712     13714     13708     13707     13709     13710
     13708     13707     13709     13711     13708     13707     13709     13712
     13709     13712     13714     13715     13709     13712     13714     13716
     13710     13709     13712     13713     13710     13709     13712     13714
     13711     13709     13712     13713     13711     13709     13712     13714
     13712     13714     13716     13717     13712     13714     13716     13718
     13712     13714     13716     13719     13713     13712     13714     13715
     13713     13712     13714     13716     13714     13716     13719     13720
     13714     13716     13719     13721     13715     13714     13716     13717
     13715     13714     13716     13718     13715     13714     13716     13719
     13716     13719     13721     13722     13716     13719     13721     13723
     13717     13716     13719     13720     13717     13716     13719     13721
     13718     13716     13719     13720     13718     13716     13719     13721
     13719     13721     13723     13724     13719     13721     13723     13725
     13719     13721     13723     13726     13720     13719     13721     13722
     13720     13719     13721     13723     13721     13723     13726     13727
     13721     13723     13726     13728     13722     13721     13723     13724
     13722     13721     13723     13725     13722     13721     13723     13726
     13723     13726     13728     13729     13723     13726     13728     13730
     13724     13723     13726     13727     13724     13723     13726     13728
     13725     13723     13726     13727     13725     13723     13726     13728
     13726     13728     13730     13731     13726     13728     13730     13732
     13726     13728     13730     13733     13727     13726     13728     13729
     13727     13726     13728     13730     13728     13730     13733     13734
     13728     13730     13733     13735     13728     13730     13733     13736
     13729     13728     13730     13731     13729     13728     13730     13732
     13729     13728     13730     13733     13730     13733     13736     13737
     13730     13733     13736     13738     13730     13733     13736     13739
     13731     13730     13733     13734     13731     13730     13733     13735
     13731     13730     13733     13736     13732     13730     13733     13734
     13732     13730     13733     13735     13732     13730     13733     13736
     13733     13736     13739     13740     13733     13736     13739     13741
     13733     13736     13739     13742     13734     13733     13736     13737
     13734     13733     13736     13738     13734     13733     13736     13739
     13735     13733     13736     13737     13735     13733     13736     13738
     13735     13733     13736     13739     13736     13739     13742     13743
     13736     13739     13742     13744     13736     13739     13742     13745
     13737     13736     13739     13740     13737     13736     13739     13741
     13737     13736     13739     13742     13738     13736     13739     13740
     13738     13736     13739     13741     13738     13736     13739     13742
     13740     13739     13742     13743     13740     13739     13742     13744
     13740     13739     13742     13745     13741     13739     13742     13743
     13741     13739     13742     13744     13741     13739     13742     13745
     13746     13749     13752     13753     13746     13749     13752     13754
     13746     13749     13752     13755     13747     13746     13749     13750
     13747     13746     13749     13751     13747     13746     13749     13752
     13748     13746     13749     13750     13748     13746     13749     13751
     13748     13746     13749     13752     13749     13752     13755     13756
     13749     13752     13755     13757     13749     13752     13755     13758
     13750     13749     13752     13753     13750     13749     13752     13754
     13750     13749     13752     13755     13751     13749     13752     13753
     13751     13749     13752     13754     13751     13749     13752     13755
     13752     13755     13758     13759     13752     13755     13758     13760
     13752     13755     13758     13761     13753     13752     13755     13756
     13753     13752     13755     13757     13753     13752     13755     13758
     13754     13752     13755     13756     13754     13752     13755     13757
     13754     13752     13755     13758     13755     13758     13761     13762
     13755     13758     13761     13763     13755     13758     13761     13764
     13756     13755     13758     13759     13756     13755     13758     13760
     13756     13755     13758     13761     13757     13755     13758     13759
     13757     13755     13758     13760     13757     13755     13758     13761
     13758     13761     13764     13765     13758     13761     13764     13766
     13758     13761     13764     13767     13759     13758     13761     13762
     13759     13758     13761     13763     13759     13758     13761     13764
     13760     13758     13761     13762     13760     13758     13761     13763
     13760     13758     13761     13764     13761     13764     13767     13768
     13761     13764     13767     13769     13761     13764     13767     13770
     13762     13761     13764     13765     13762     13761     13764     13766
     13762     13761     13764     13767     13763     13761     13764     13765
     13763     13761     13764     13766     13763     13761     13764     13767
     13764     13767     13770     13771     13764     13767     13770     13772
     13764     13767     13770     13773     13765     13764     13767     13768
     13765     13764     13767     13769     13765     13764     13767     13770
     13766     13764     13767     13768     13766     13764     13767     13769
     13766     13764     13767     13770     13767     13770     13773     13774
     13767     13770     13773     13775     13767     13770     13773     13776
     13768     13767     13770     13771     13768     13767     13770     13772
     13768     13767     13770     13773     13769     13767     13770     13771
     13769     13767     13770     13772     13769     13767     13770     13773
     13770     13773     13776     13777     13770     13773     13776     13778
     13770     13773     13776     13779     13771     13770     13773     13774
     13771     13770     13773     13775     13771     13770     13773     13776
     13772     13770     13773     13774     13772     13770     13773     13775
     13772     13770     13773     13776     13773     13776     13779     13780
     13773     13776     13779     13781     13773     13776     13779     13782
     13774     13773     13776     13777     13774     13773     13776     13778
     13774     13773     13776     13779     13775     13773     13776     13777
     13775     13773     13776     13778     13775     13773     13776     13779
     13776     13779     13782     13783     13776     13779     13782     13784
     13776     13779     13782     13785     13777     13776     13779     13780
     13777     13776     13779     13781     13777     13776     13779     13782
     13778     13776     13779     13780     13778     13776     13779     13781
     13778     13776     13779     13782     13779     13782     13785     13786
     13779     13782     13785     13787     13779     13782     13785     13788
     13780     13779     13782     13783     13780     13779     13782     13784
     13780     13779     13782     13785     13781     13779     13782     13783
     13781     13779     13782     13784     13781     13779     13782     13785
     13782     13785     13788     13789     13782     13785     13788     13790
     13782     13785     13788     13791     13783     13782     13785     13786
     13783     13782     13785     13787     13783     13782     13785     13788
     13784     13782     13785     13786     13784     13782     13785     13787
     13784     13782     13785     13788     13785     13788     13791     13792
     13785     13788     13791     13793     13785     13788     13791     13794
     13786     13785     13788     13789     13786     13785     13788     13790
     13786     13785     13788     13791     13787     13785     13788     13789
     13787     13785     13788     13790     13787     13785     13788     13791
     13789     13788     13791     13792     13789     13788     13791     13793
     13789     13788     13791     13794     13790     13788     13791     13792
     13790     13788     13791     13793     13790     13788     13791     13794
     13795     13799     13802     13803     13795     13799     13802     13833
     13795     13841     13838     13833     13795     13841     13838     13839
     13795     13841     13838     13840     13796     13795     13797     13798
     13796     13795     13799     13800     13796     13795     13799     13801
     13796     13795     13799     13802     13796     13795     13841     13838
     13796     13795     13841     13842     13796     13795     13841     13843
     13797     13795     13799     13800     13797     13795     13799     13801
     13797     13795     13799     13802     13797     13795     13841     13838
     13797     13795     13841     13842     13797     13795     13841     13843
     13798     13797     13795     13799     13798     13797     13795     13841
     13799     13795     13841     13838     13799     13795     13841     13842
     13799     13795     13841     13843     13799     13802     13803     13804
     13799     13802     13803     13805     13799     13802     13833     13831
     13799     13802     13833     13834     13799     13802     13833     13838
     13800     13799     13795     13841     13800     13799     13802     13803
     13800     13799     13802     13833     13801     13799     13795     13841
     13801     13799     13802     13803     13801     13799     13802     13833
     13802     13799     13795     13841     13802     13803     13805     13806
     13802     13803     13805     13807     13802     13803     13805     13808
     13802     13833     13831     13808     13802     13833     13831     13828
     13802     13833     13831     13832     13802     13833     13834     13835
     13802     13833     13834     13836     13802     13833     13834     13837
     13802     13833     13838     13839     13802     13833     13838     13840
     13802     13833     13838     13841     13803     13802     13833     13831
     13803     13802     13833     13834     13803     13802     13833     13838
     13803     13805     13808     13809     13803     13805     13808     13810
     13803     13805     13808     13831     13804     13803     13802     13833
     13804     13803     13805     13806     13804     13803     13805     13807
     13804     13803     13805     13808     13805     13803     13802     13833
     13805     13808     13810     13811     13805     13808     13810     13812
     13805     13808     13810     13820     13805     13808     13831     13828
     13805     13808     13831     13832     13805     13808     13831     13833
     13806     13805     13808     13809     13806     13805     13808     13810
     13806     13805     13808     13831     13807     13805     13808     13809
     13807     13805     13808     13810     13807     13805     13808     13831
     13808     13810     13812     13813     13808     13810     13812     13814
     13808     13810     13812     13815     13808     13810     13820     13818
     13808     13810     13820     13821     13808     13810     13820     13825
     13808     13831     13828     13825     13808     13831     13828     13829
     13808     13831     13828     13830     13808     13831     13833     13834
     13808     13831     13833     13838     13809     13808     13810     13811
     13809     13808     13810     13812     13809     13808     13810     13820
     13809     13808     13831     13828     13809     13808     13831     13832
     13809     13808     13831     13833     13810     13808     13831     13828
     13810     13808     13831     13832     13810     13808     13831     13833
     13810     13812     13815     13816     13810     13812     13815     13817
     13810     13812     13815     13818     13810     13820     13818     13815
     13810     13820     13818     13819     13810     13820     13818     13844
     13810     13820     13821     13822     13810     13820     13821     13823
     13810     13820     13821     13824     13810     13820     13825     13826
     13810     13820     13825     13827     13810     13820     13825     13828
     13811     13810     13808     13831     13811     13810     13812     13813
     13811     13810     13812     13814     13811     13810     13812     13815
     13811     13810     13820     13818     13811     13810     13820     13821
     13811     13810     13820     13825     13812     13810     13808     13831
     13812     13810     13820     13818     13812     13810     13820     13821
     13812     13810     13820     13825     13812     13815     13818     13819
     13812     13815     13818     13820     13812     13815     13818     13844
     13813     13812     13810     13820     13813     13812     13815     13816
     13813     13812     13815     13817     13813     13812     13815     13818
     13814     13812     13810     13820     13814     13812     13815     13816
     13814     13812     13815     13817     13814     13812     13815     13818
     13815     13812     13810     13820     13815     13818     13820     13821
     13815     13818     13820     13825     13815     13818     13844     13845
     13815     13818     13844     13846     13815     13818     13844     13850
     13816     13815     13818     13819     13816     13815     13818     13820
     13816     13815     13818     13844     13817     13815     13818     13819
     13817     13815     13818     13820     13817     13815     13818     13844
     13818     13820     13821     13822     13818     13820     13821     13823
     13818     13820     13821     13824     13818     13820     13825     13826
     13818     13820     13825     13827     13818     13820     13825     13828
     13818     13844     13846     13847     13818     13844     13846     13848
     13818     13844     13846     13849     13818     13844     13850     13851
     13818     13844     13850     13852     13818     13844     13850     13853
     13819     13818     13820     13821     13819     13818     13820     13825
     13819     13818     13844     13845     13819     13818     13844     13846
     13819     13818     13844     13850     13820     13810     13808     13831
     13820     13818     13844     13845     13820     13818     13844     13846
     13820     13818     13844     13850     13820     13825     13828     13829
     13820     13825     13828     13830     13820     13825     13828     13831
     13821     13820     13818     13844     13821     13820     13825     13826
     13821     13820     13825     13827     13821     13820     13825     13828
     13822     13821     13820     13825     13823     13821     13820     13825
     13824     13821     13820     13825     13825     13820     13818     13844
     13825     13828     13831     13832     13825     13828     13831     13833
     13826     13825     13828     13829     13826     13825     13828     13830
     13826     13825     13828     13831     13827     13825     13828     13829
     13827     13825     13828     13830     13827     13825     13828     13831
     13828     13831     13833     13834     13828     13831     13833     13838
     13829     13828     13831     13832     13829     13828     13831     13833
     13830     13828     13831     13832     13830     13828     13831     13833
     13831     13833     13834     13835     13831     13833     13834     13836
     13831     13833     13834     13837     13831     13833     13838     13839
     13831     13833     13838     13840     13831     13833     13838     13841
     13832     13831     13833     13834     13832     13831     13833     13838
     13833     13838     13841     13842     13833     13838     13841     13843
     13834     13833     13838     13839     13834     13833     13838     13840
     13834     13833     13838     13841     13835     13834     13833     13838
     13836     13834     13833     13838     13837     13834     13833     13838
     13839     13838     13841     13842     13839     13838     13841     13843
     13840     13838     13841     13842     13840     13838     13841     13843
     13844     13850     13853     13854     13844     13850     13853     13855
     13844     13850     13853     13856     13845     13844     13846     13847
     13845     13844     13846     13848     13845     13844     13846     13849
     13845     13844     13850     13851     13845     13844     13850     13852
     13845     13844     13850     13853     13846     13844     13850     13851
     13846     13844     13850     13852     13846     13844     13850     13853
     13847     13846     13844     13850     13848     13846     13844     13850
     13849     13846     13844     13850     13850     13853     13856     13857
     13850     13853     13856     13858     13850     13853     13856     13859
     13851     13850     13853     13854     13851     13850     13853     13855
     13851     13850     13853     13856     13852     13850     13853     13854
     13852     13850     13853     13855     13852     13850     13853     13856
     13853     13856     13859     13860     13853     13856     13859     13861
     13853     13856     13859     13865     13854     13853     13856     13857
     13854     13853     13856     13858     13854     13853     13856     13859
     13855     13853     13856     13857     13855     13853     13856     13858
     13855     13853     13856     13859     13856     13859     13861     13862
     13856     13859     13861     13863     13856     13859     13861     13864
     13856     13859     13865     13866     13856     13859     13865     13867
     13856     13859     13865     13868     13857     13856     13859     13860
     13857     13856     13859     13861     13857     13856     13859     13865
     13858     13856     13859     13860     13858     13856     13859     13861
     13858     13856     13859     13865     13860     13859     13861     13862
     13860     13859     13861     13863     13860     13859     13861     13864
     13860     13859     13865     13866     13860     13859     13865     13867
     13860     13859     13865     13868     13861     13859     13865     13866
     13861     13859     13865     13867     13861     13859     13865     13868
     13862     13861     13859     13865     13863     13861     13859     13865
     13864     13861     13859     13865     13869     13873     13876     13877
     13869     13873     13876     13878     13869     13873     13876     13882
     13870     13869     13873     13874     13870     13869     13873     13875
     13870     13869     13873     13876     13871     13869     13873     13874
     13871     13869     13873     13875     13871     13869     13873     13876
     13872     13869     13873     13874     13872     13869     13873     13875
     13872     13869     13873     13876     13873     13876     13882     13879
     13874     13873     13876     13877     13874     13873     13876     13878
     13874     13873     13876     13882     13875     13873     13876     13877
     13875     13873     13876     13878     13875     13873     13876     13882
     13876     13882     13879     13880     13876     13882     13879     13881
     13876     13882     13879     13883     13877     13876     13882     13879
     13878     13876     13882     13879     13879     13883     13884     13885
     13879     13883     13884     13886     13879     13883     13884     13887
     13880     13879     13883     13884     13881     13879     13883     13884
     13882     13879     13883     13884     13883     13884     13887     13888
     13883     13884     13887     13889     13883     13884     13887     13895
     13884     13887     13889     13890     13884     13887     13895     13896
     13884     13887     13895     13897     13884     13887     13895     13898
     13885     13884     13887     13888     13885     13884     13887     13889
     13885     13884     13887     13895     13886     13884     13887     13888
     13886     13884     13887     13889     13886     13884     13887     13895
     13887     13889     13890     13891     13887     13889     13890     13892
     13887     13895     13898     13899     13888     13887     13889     13890
     13888     13887     13895     13896     13888     13887     13895     13897
     13888     13887     13895     13898     13889     13887     13895     13896
     13889     13887     13895     13897     13889     13887     13895     13898
     13889     13890     13892     13893     13889     13890     13892     13894
     13889     13890     13892     13904     13890     13889     13887     13895
     13890     13892     13904     13905     13890     13892     13904     13906
     13890     13892     13904     13907     13891     13890     13892     13893
     13891     13890     13892     13894     13891     13890     13892     13904
     13892     13904     13907     13908     13892     13904     13907     13909
     13892     13904     13907     13910     13893     13892     13904     13905
     13893     13892     13904     13906     13893     13892     13904     13907
     13894     13892     13904     13905     13894     13892     13904     13906
     13894     13892     13904     13907     13895     13898     13899     13900
     13895     13898     13899     13901     13896     13895     13898     13899
     13897     13895     13898     13899     13898     13899     13901     13902
     13898     13899     13901     13903     13898     13899     13901     13951
     13899     13901     13951     13952     13899     13901     13951     13953
     13899     13901     13951     13954     13900     13899     13901     13902
     13900     13899     13901     13903     13900     13899     13901     13951
     13901     13951     13954     13955     13901     13951     13954     13956
     13901     13951     13954     13957     13902     13901     13951     13952
     13902     13901     13951     13953     13902     13901     13951     13954
     13903     13901     13951     13952     13903     13901     13951     13953
     13903     13901     13951     13954     13904     13907     13910     13911
     13904     13907     13910     13912     13905     13904     13907     13908
     13905     13904     13907     13909     13905     13904     13907     13910
     13906     13904     13907     13908     13906     13904     13907     13909
     13906     13904     13907     13910     13907     13910     13912     13913
     13907     13910     13912     13914     13908     13907     13910     13911
     13908     13907     13910     13912     13909     13907     13910     13911
     13909     13907     13910     13912     13910     13912     13914     13915
     13910     13912     13914     13916     13910     13912     13914     13917
     13911     13910     13912     13913     13911     13910     13912     13914
     13912     13914     13917     13918     13912     13914     13917     13919
     13913     13912     13914     13915     13913     13912     13914     13916
     13913     13912     13914     13917     13914     13917     13919     13920
     13914     13917     13919     13921     13915     13914     13917     13918
     13915     13914     13917     13919     13916     13914     13917     13918
     13916     13914     13917     13919     13917     13919     13921     13922
     13917     13919     13921     13923     13917     13919     13921     13924
     13918     13917     13919     13920     13918     13917     13919     13921
     13919     13921     13924     13925     13919     13921     13924     13926
     13920     13919     13921     13922     13920     13919     13921     13923
     13920     13919     13921     13924     13921     13924     13926     13927
     13921     13924     13926     13928     13922     13921     13924     13925
     13922     13921     13924     13926     13923     13921     13924     13925
     13923     13921     13924     13926     13924     13926     13928     13929
     13924     13926     13928     13930     13924     13926     13928     13931
     13925     13924     13926     13927     13925     13924     13926     13928
     13926     13928     13931     13932     13926     13928     13931     13933
     13927     13926     13928     13929     13927     13926     13928     13930
     13927     13926     13928     13931     13928     13931     13933     13934
     13928     13931     13933     13935     13929     13928     13931     13932
     13929     13928     13931     13933     13930     13928     13931     13932
     13930     13928     13931     13933     13931     13933     13935     13936
     13931     13933     13935     13937     13931     13933     13935     13938
     13932     13931     13933     13934     13932     13931     13933     13935
     13933     13935     13938     13939     13933     13935     13938     13940
     13933     13935     13938     13941     13934     13933     13935     13936
     13934     13933     13935     13937     13934     13933     13935     13938
     13935     13938     13941     13942     13935     13938     13941     13943
     13935     13938     13941     13944     13936     13935     13938     13939
     13936     13935     13938     13940     13936     13935     13938     13941
     13937     13935     13938     13939     13937     13935     13938     13940
     13937     13935     13938     13941     13938     13941     13944     13945
     13938     13941     13944     13946     13938     13941     13944     13947
     13939     13938     13941     13942     13939     13938     13941     13943
     13939     13938     13941     13944     13940     13938     13941     13942
     13940     13938     13941     13943     13940     13938     13941     13944
     13941     13944     13947     13948     13941     13944     13947     13949
     13941     13944     13947     13950     13942     13941     13944     13945
     13942     13941     13944     13946     13942     13941     13944     13947
     13943     13941     13944     13945     13943     13941     13944     13946
     13943     13941     13944     13947     13945     13944     13947     13948
     13945     13944     13947     13949     13945     13944     13947     13950
     13946     13944     13947     13948     13946     13944     13947     13949
     13946     13944     13947     13950     13951     13954     13957     13958
     13951     13954     13957     13959     13951     13954     13957     13960
     13952     13951     13954     13955     13952     13951     13954     13956
     13952     13951     13954     13957     13953     13951     13954     13955
     13953     13951     13954     13956     13953     13951     13954     13957
     13954     13957     13960     13961     13954     13957     13960     13962
     13954     13957     13960     13963     13955     13954     13957     13958
     13955     13954     13957     13959     13955     13954     13957     13960
     13956     13954     13957     13958     13956     13954     13957     13959
     13956     13954     13957     13960     13957     13960     13963     13964
     13957     13960     13963     13965     13957     13960     13963     13966
     13958     13957     13960     13961     13958     13957     13960     13962
     13958     13957     13960     13963     13959     13957     13960     13961
     13959     13957     13960     13962     13959     13957     13960     13963
     13960     13963     13966     13967     13960     13963     13966     13968
     13960     13963     13966     13969     13961     13960     13963     13964
     13961     13960     13963     13965     13961     13960     13963     13966
     13962     13960     13963     13964     13962     13960     13963     13965
     13962     13960     13963     13966     13963     13966     13969     13970
     13963     13966     13969     13971     13963     13966     13969     13972
     13964     13963     13966     13967     13964     13963     13966     13968
     13964     13963     13966     13969     13965     13963     13966     13967
     13965     13963     13966     13968     13965     13963     13966     13969
     13966     13969     13972     13973     13966     13969     13972     13974
     13966     13969     13972     13975     13967     13966     13969     13970
     13967     13966     13969     13971     13967     13966     13969     13972
     13968     13966     13969     13970     13968     13966     13969     13971
     13968     13966     13969     13972     13969     13972     13975     13976
     13969     13972     13975     13977     13969     13972     13975     13978
     13970     13969     13972     13973     13970     13969     13972     13974
     13970     13969     13972     13975     13971     13969     13972     13973
     13971     13969     13972     13974     13971     13969     13972     13975
     13972     13975     13978     13979     13972     13975     13978     13980
     13972     13975     13978     13981     13973     13972     13975     13976
     13973     13972     13975     13977     13973     13972     13975     13978
     13974     13972     13975     13976     13974     13972     13975     13977
     13974     13972     13975     13978     13975     13978     13981     13982
     13975     13978     13981     13983     13975     13978     13981     13984
     13976     13975     13978     13979     13976     13975     13978     13980
     13976     13975     13978     13981     13977     13975     13978     13979
     13977     13975     13978     13980     13977     13975     13978     13981
     13978     13981     13984     13985     13978     13981     13984     13986
     13978     13981     13984     13987     13979     13978     13981     13982
     13979     13978     13981     13983     13979     13978     13981     13984
     13980     13978     13981     13982     13980     13978     13981     13983
     13980     13978     13981     13984     13981     13984     13987     13988
     13981     13984     13987     13989     13981     13984     13987     13990
     13982     13981     13984     13985     13982     13981     13984     13986
     13982     13981     13984     13987     13983     13981     13984     13985
     13983     13981     13984     13986     13983     13981     13984     13987
     13984     13987     13990     13991     13984     13987     13990     13992
     13984     13987     13990     13993     13985     13984     13987     13988
     13985     13984     13987     13989     13985     13984     13987     13990
     13986     13984     13987     13988     13986     13984     13987     13989
     13986     13984     13987     13990     13987     13990     13993     13994
     13987     13990     13993     13995     13987     13990     13993     13996
     13988     13987     13990     13991     13988     13987     13990     13992
     13988     13987     13990     13993     13989     13987     13990     13991
     13989     13987     13990     13992     13989     13987     13990     13993
     13990     13993     13996     13997     13990     13993     13996     13998
     13990     13993     13996     13999     13991     13990     13993     13994
     13991     13990     13993     13995     13991     13990     13993     13996
     13992     13990     13993     13994     13992     13990     13993     13995
     13992     13990     13993     13996     13994     13993     13996     13997
     13994     13993     13996     13998     13994     13993     13996     13999
     13995     13993     13996     13997     13995     13993     13996     13998
     13995     13993     13996     13999     14000     14013     14016     14017
     14000     14013     14016     14018     14000     14013     14016     14022
     14001     14000     14005     14006     14001     14000     14005     14007
     14001     14000     14005     14008     14001     14000     14009     14010
     14001     14000     14009     14011     14001     14000     14009     14012
     14001     14000     14013     14014     14001     14000     14013     14015
     14001     14000     14013     14016     14002     14001     14000     14005
     14002     14001     14000     14009     14002     14001     14000     14013
     14003     14001     14000     14005     14003     14001     14000     14009
     14003     14001     14000     14013     14004     14001     14000     14005
     14004     14001     14000     14009     14004     14001     14000     14013
     14005     14000     14009     14010     14005     14000     14009     14011
     14005     14000     14009     14012     14005     14000     14013     14014
     14005     14000     14013     14015     14005     14000     14013     14016
     14006     14005     14000     14009     14006     14005     14000     14013
     14007     14005     14000     14009     14007     14005     14000     14013
     14008     14005     14000     14009     14008     14005     14000     14013
     14009     14000     14013     14014     14009     14000     14013     14015
     14009     14000     14013     14016     14010     14009     14000     14013
     14011     14009     14000     14013     14012     14009     14000     14013
     14013     14016     14022     14019     14014     14013     14016     14017
     14014     14013     14016     14018     14014     14013     14016     14022
     14015     14013     14016     14017     14015     14013     14016     14018
     14015     14013     14016     14022     14016     14022     14019     14020
     14016     14022     14019     14021     14016     14022     14019     14023
     14017     14016     14022     14019     14018     14016     14022     14019
     14019     14023     14024     14025     14019     14023     14024     14026
     14019     14023     14024     14027     14020     14019     14023     14024
     14021     14019     14023     14024     14022     14019     14023     14024
     14023     14024     14027     14028     14023     14024     14027     14029
     14023     14024     14027     14035     14024     14027     14029     14030
     14024     14027     14035     14036     14024     14027     14035     14037
     14024     14027     14035     14038     14025     14024     14027     14028
     14025     14024     14027     14029     14025     14024     14027     14035
     14026     14024     14027     14028     14026     14024     14027     14029
     14026     14024     14027     14035     14027     14029     14030     14031
     14027     14029     14030     14032     14027     14035     14038     14039
     14028     14027     14029     14030     14028     14027     14035     14036
     14028     14027     14035     14037     14028     14027     14035     14038
     14029     14027     14035     14036     14029     14027     14035     14037
     14029     14027     14035     14038     14029     14030     14032     14033
     14029     14030     14032     14034     14029     14030     14032     14044
     14030     14029     14027     14035     14030     14032     14044     14045
     14030     14032     14044     14046     14030     14032     14044     14047
     14031     14030     14032     14033     14031     14030     14032     14034
     14031     14030     14032     14044     14032     14044     14047     14048
     14032     14044     14047     14049     14032     14044     14047     14050
     14033     14032     14044     14045     14033     14032     14044     14046
     14033     14032     14044     14047     14034     14032     14044     14045
     14034     14032     14044     14046     14034     14032     14044     14047
     14035     14038     14039     14040     14035     14038     14039     14041
     14036     14035     14038     14039     14037     14035     14038     14039
     14038     14039     14041     14042     14038     14039     14041     14043
     14038     14039     14041     14089     14039     14041     14089     14090
     14039     14041     14089     14091     14039     14041     14089     14092
     14040     14039     14041     14042     14040     14039     14041     14043
     14040     14039     14041     14089     14041     14089     14092     14093
     14041     14089     14092     14094     14041     14089     14092     14095
     14042     14041     14089     14090     14042     14041     14089     14091
     14042     14041     14089     14092     14043     14041     14089     14090
     14043     14041     14089     14091     14043     14041     14089     14092
     14044     14047     14050     14051     14044     14047     14050     14052
     14044     14047     14050     14053     14045     14044     14047     14048
     14045     14044     14047     14049     14045     14044     14047     14050
     14046     14044     14047     14048     14046     14044     14047     14049
     14046     14044     14047     14050     14047     14050     14053     14054
     14047     14050     14053     14055     14047     14050     14053     14056
     14048     14047     14050     14051     14048     14047     14050     14052
     14048     14047     14050     14053     14049     14047     14050     14051
     14049     14047     14050     14052     14049     14047     14050     14053
     14050     14053     14056     14057     14050     14053     14056     14058
     14050     14053     14056     14059     14051     14050     14053     14054
     14051     14050     14053     14055     14051     14050     14053     14056
     14052     14050     14053     14054     14052     14050     14053     14055
     14052     14050     14053     14056     14053     14056     14059     14060
     14053     14056     14059     14061     14053     14056     14059     14062
     14054     14053     14056     14057     14054     14053     14056     14058
     14054     14053     14056     14059     14055     14053     14056     14057
     14055     14053     14056     14058     14055     14053     14056     14059
     14056     14059     14062     14063     14056     14059     14062     14064
     14057     14056     14059     14060     14057     14056     14059     14061
     14057     14056     14059     14062     14058     14056     14059     14060
     14058     14056     14059     14061     14058     14056     14059     14062
     14059     14062     14064     14065     14059     14062     14064     14066
     14060     14059     14062     14063     14060     14059     14062     14064
     14061     14059     14062     14063     14061     14059     14062     14064
     14062     14064     14066     14067     14062     14064     14066     14068
     14062     14064     14066     14069     14063     14062     14064     14065
     14063     14062     14064     14066     14064     14066     14069     14070
     14064     14066     14069     14071     14065     14064     14066     14067
     14065     14064     14066     14068     14065     14064     14066     14069
     14066     14069     14071     14072     14066     14069     14071     14073
     14067     14066     14069     14070     14067     14066     14069     14071
     14068     14066     14069     14070     14068     14066     14069     14071
     14069     14071     14073     14074     14069     14071     14073     14075
     14069     14071     14073     14076     14070     14069     14071     14072
     14070     14069     14071     14073     14071     14073     14076     14077
     14071     14073     14076     14078     14071     14073     14076     14079
     14072     14071     14073     14074     14072     14071     14073     14075
     14072     14071     14073     14076     14073     14076     14079     14080
     14073     14076     14079     14081     14073     14076     14079     14082
     14074     14073     14076     14077     14074     14073     14076     14078
     14074     14073     14076     14079     14075     14073     14076     14077
     14075     14073     14076     14078     14075     14073     14076     14079
     14076     14079     14082     14083     14076     14079     14082     14084
     14076     14079     14082     14085     14077     14076     14079     14080
     14077     14076     14079     14081     14077     14076     14079     14082
     14078     14076     14079     14080     14078     14076     14079     14081
     14078     14076     14079     14082     14079     14082     14085     14086
     14079     14082     14085     14087     14079     14082     14085     14088
     14080     14079     14082     14083     14080     14079     14082     14084
     14080     14079     14082     14085     14081     14079     14082     14083
     14081     14079     14082     14084     14081     14079     14082     14085
     14083     14082     14085     14086     14083     14082     14085     14087
     14083     14082     14085     14088     14084     14082     14085     14086
     14084     14082     14085     14087     14084     14082     14085     14088
     14089     14092     14095     14096     14089     14092     14095     14097
     14089     14092     14095     14098     14090     14089     14092     14093
     14090     14089     14092     14094     14090     14089     14092     14095
     14091     14089     14092     14093     14091     14089     14092     14094
     14091     14089     14092     14095     14092     14095     14098     14099
     14092     14095     14098     14100     14092     14095     14098     14101
     14093     14092     14095     14096     14093     14092     14095     14097
     14093     14092     14095     14098     14094     14092     14095     14096
     14094     14092     14095     14097     14094     14092     14095     14098
     14095     14098     14101     14102     14095     14098     14101     14103
     14095     14098     14101     14104     14096     14095     14098     14099
     14096     14095     14098     14100     14096     14095     14098     14101
     14097     14095     14098     14099     14097     14095     14098     14100
     14097     14095     14098     14101     14098     14101     14104     14105
     14098     14101     14104     14106     14098     14101     14104     14107
     14099     14098     14101     14102     14099     14098     14101     14103
     14099     14098     14101     14104     14100     14098     14101     14102
     14100     14098     14101     14103     14100     14098     14101     14104
     14101     14104     14107     14108     14101     14104     14107     14109
     14101     14104     14107     14110     14102     14101     14104     14105
     14102     14101     14104     14106     14102     14101     14104     14107
     14103     14101     14104     14105     14103     14101     14104     14106
     14103     14101     14104     14107     14104     14107     14110     14111
     14104     14107     14110     14112     14104     14107     14110     14113
     14105     14104     14107     14108     14105     14104     14107     14109
     14105     14104     14107     14110     14106     14104     14107     14108
     14106     14104     14107     14109     14106     14104     14107     14110
     14107     14110     14113     14114     14107     14110     14113     14115
     14107     14110     14113     14116     14108     14107     14110     14111
     14108     14107     14110     14112     14108     14107     14110     14113
     14109     14107     14110     14111     14109     14107     14110     14112
     14109     14107     14110     14113     14110     14113     14116     14117
     14110     14113     14116     14118     14110     14113     14116     14119
     14111     14110     14113     14114     14111     14110     14113     14115
     14111     14110     14113     14116     14112     14110     14113     14114
     14112     14110     14113     14115     14112     14110     14113     14116
     14113     14116     14119     14120     14113     14116     14119     14121
     14113     14116     14119     14122     14114     14113     14116     14117
     14114     14113     14116     14118     14114     14113     14116     14119
     14115     14113     14116     14117     14115     14113     14116     14118
     14115     14113     14116     14119     14116     14119     14122     14123
     14116     14119     14122     14124     14116     14119     14122     14125
     14117     14116     14119     14120     14117     14116     14119     14121
     14117     14116     14119     14122     14118     14116     14119     14120
     14118     14116     14119     14121     14118     14116     14119     14122
     14119     14122     14125     14126     14119     14122     14125     14127
     14119     14122     14125     14128     14120     14119     14122     14123
     14120     14119     14122     14124     14120     14119     14122     14125
     14121     14119     14122     14123     14121     14119     14122     14124
     14121     14119     14122     14125     14122     14125     14128     14129
     14122     14125     14128     14130     14122     14125     14128     14131
     14123     14122     14125     14126     14123     14122     14125     14127
     14123     14122     14125     14128     14124     14122     14125     14126
     14124     14122     14125     14127     14124     14122     14125     14128
     14125     14128     14131     14132     14125     14128     14131     14133
     14125     14128     14131     14134     14126     14125     14128     14129
     14126     14125     14128     14130     14126     14125     14128     14131
     14127     14125     14128     14129     14127     14125     14128     14130
     14127     14125     14128     14131     14128     14131     14134     14135
     14128     14131     14134     14136     14128     14131     14134     14137
     14129     14128     14131     14132     14129     14128     14131     14133
     14129     14128     14131     14134     14130     14128     14131     14132
     14130     14128     14131     14133     14130     14128     14131     14134
     14132     14131     14134     14135     14132     14131     14134     14136
     14132     14131     14134     14137     14133     14131     14134     14135
     14133     14131     14134     14136     14133     14131     14134     14137
     14138     14142     14144     14145     14138     14142     14146     14147
     14138     14142     14146     14148     14138     14142     14146     14150
     14138     14158     14154     14150     14138     14158     14154     14155
     14138     14158     14154     14156     14138     14158     14163     14160
     14139     14138     14140     14141     14139     14138     14142     14143
     14139     14138     14142     14144     14139     14138     14142     14146
     14139     14138     14158     14154     14139     14138     14158     14159
     14139     14138     14158     14163     14140     14138     14142     14143
     14140     14138     14142     14144     14140     14138     14142     14146
     14140     14138     14158     14154     14140     14138     14158     14159
     14140     14138     14158     14163     14141     14140     14138     14142
     14141     14140     14138     14158     14142     14138     14158     14154
     14142     14138     14158     14159     14142     14138     14158     14163
     14142     14146     14148     14149     14142     14146     14150     14151
     14142     14146     14150     14152     14142     14146     14150     14154
     14143     14142     14138     14158     14143     14142     14144     14145
     14143     14142     14146     14147     14143     14142     14146     14148
     14143     14142     14146     14150     14144     14142     14138     14158
     14144     14142     14146     14147     14144     14142     14146     14148
     14144     14142     14146     14150     14145     14144     14142     14146
     14146     14142     14138     14158     14146     14150     14152     14153
     14146     14150     14154     14155     14146     14150     14154     14156
     14146     14150     14154     14158     14147     14146     14148     14149
     14147     14146     14150     14151     14147     14146     14150     14152
     14147     14146     14150     14154     14148     14146     14150     14151
     14148     14146     14150     14152     14148     14146     14150     14154
     14149     14148     14146     14150     14150     14154     14156     14157
     14150     14154     14158     14159     14150     14154     14158     14163
     14151     14150     14152     14153     14151     14150     14154     14155
     14151     14150     14154     14156     14151     14150     14154     14158
     14152     14150     14154     14155     14152     14150     14154     14156
     14152     14150     14154     14158     14153     14152     14150     14154
     14154     14158     14163     14160     14155     14154     14156     14157
     14155     14154     14158     14159     14155     14154     14158     14163
     14156     14154     14158     14159     14156     14154     14158     14163
     14157     14156     14154     14158     14158     14163     14160     14161
     14158     14163     14160     14162     14158     14163     14160     14164
     14159     14158     14163     14160     14160     14164     14165     14166
     14160     14164     14165     14167     14160     14164     14165     14168
     14161     14160     14164     14165     14162     14160     14164     14165
     14163     14160     14164     14165     14164     14165     14168     14169
     14164     14165     14168     14170     14164     14165     14168     14176
     14165     14168     14170     14171     14165     14168     14176     14177
     14165     14168     14176     14178     14165     14168     14176     14179
     14166     14165     14168     14169     14166     14165     14168     14170
     14166     14165     14168     14176     14167     14165     14168     14169
     14167     14165     14168     14170     14167     14165     14168     14176
     14168     14170     14171     14172     14168     14170     14171     14173
     14168     14176     14179     14180     14169     14168     14170     14171
     14169     14168     14176     14177     14169     14168     14176     14178
     14169     14168     14176     14179     14170     14168     14176     14177
     14170     14168     14176     14178     14170     14168     14176     14179
     14170     14171     14173     14174     14170     14171     14173     14175
     14170     14171     14173     14185     14171     14170     14168     14176
     14171     14173     14185     14186     14171     14173     14185     14187
     14171     14173     14185     14188     14172     14171     14173     14174
     14172     14171     14173     14175     14172     14171     14173     14185
     14173     14185     14188     14189     14173     14185     14188     14190
     14173     14185     14188     14191     14174     14173     14185     14186
     14174     14173     14185     14187     14174     14173     14185     14188
     14175     14173     14185     14186     14175     14173     14185     14187
     14175     14173     14185     14188     14176     14179     14180     14181
     14176     14179     14180     14182     14177     14176     14179     14180
     14178     14176     14179     14180     14179     14180     14182     14183
     14179     14180     14182     14184     14179     14180     14182     14232
     14180     14182     14232     14233     14180     14182     14232     14234
     14180     14182     14232     14235     14181     14180     14182     14183
     14181     14180     14182     14184     14181     14180     14182     14232
     14182     14232     14235     14236     14182     14232     14235     14237
     14182     14232     14235     14238     14183     14182     14232     14233
     14183     14182     14232     14234     14183     14182     14232     14235
     14184     14182     14232     14233     14184     14182     14232     14234
     14184     14182     14232     14235     14185     14188     14191     14192
     14185     14188     14191     14193     14186     14185     14188     14189
     14186     14185     14188     14190     14186     14185     14188     14191
     14187     14185     14188     14189     14187     14185     14188     14190
     14187     14185     14188     14191     14188     14191     14193     14194
     14188     14191     14193     14195     14189     14188     14191     14192
     14189     14188     14191     14193     14190     14188     14191     14192
     14190     14188     14191     14193     14191     14193     14195     14196
     14191     14193     14195     14197     14191     14193     14195     14198
     14192     14191     14193     14194     14192     14191     14193     14195
     14193     14195     14198     14199     14193     14195     14198     14200
     14194     14193     14195     14196     14194     14193     14195     14197
     14194     14193     14195     14198     14195     14198     14200     14201
     14195     14198     14200     14202     14196     14195     14198     14199
     14196     14195     14198     14200     14197     14195     14198     14199
     14197     14195     14198     14200     14198     14200     14202     14203
     14198     14200     14202     14204     14198     14200     14202     14205
     14199     14198     14200     14201     14199     14198     14200     14202
     14200     14202     14205     14206     14200     14202     14205     14207
     14201     14200     14202     14203     14201     14200     14202     14204
     14201     14200     14202     14205     14202     14205     14207     14208
     14202     14205     14207     14209     14203     14202     14205     14206
     14203     14202     14205     14207     14204     14202     14205     14206
     14204     14202     14205     14207     14205     14207     14209     14210
     14205     14207     14209     14211     14205     14207     14209     14212
     14206     14205     14207     14208     14206     14205     14207     14209
     14207     14209     14212     14213     14207     14209     14212     14214
     14208     14207     14209     14210     14208     14207     14209     14211
     14208     14207     14209     14212     14209     14212     14214     14215
     14209     14212     14214     14216     14210     14209     14212     14213
     14210     14209     14212     14214     14211     14209     14212     14213
     14211     14209     14212     14214     14212     14214     14216     14217
     14212     14214     14216     14218     14212     14214     14216     14219
     14213     14212     14214     14215     14213     14212     14214     14216
     14214     14216     14219     14220     14214     14216     14219     14221
     14214     14216     14219     14222     14215     14214     14216     14217
     14215     14214     14216     14218     14215     14214     14216     14219
     14216     14219     14222     14223     14216     14219     14222     14224
     14216     14219     14222     14225     14217     14216     14219     14220
     14217     14216     14219     14221     14217     14216     14219     14222
     14218     14216     14219     14220     14218     14216     14219     14221
     14218     14216     14219     14222     14219     14222     14225     14226
     14219     14222     14225     14227     14219     14222     14225     14228
     14220     14219     14222     14223     14220     14219     14222     14224
     14220     14219     14222     14225     14221     14219     14222     14223
     14221     14219     14222     14224     14221     14219     14222     14225
     14222     14225     14228     14229     14222     14225     14228     14230
     14222     14225     14228     14231     14223     14222     14225     14226
     14223     14222     14225     14227     14223     14222     14225     14228
     14224     14222     14225     14226     14224     14222     14225     14227
     14224     14222     14225     14228     14226     14225     14228     14229
     14226     14225     14228     14230     14226     14225     14228     14231
     14227     14225     14228     14229     14227     14225     14228     14230
     14227     14225     14228     14231     14232     14235     14238     14239
     14232     14235     14238     14240     14232     14235     14238     14241
     14233     14232     14235     14236     14233     14232     14235     14237
     14233     14232     14235     14238     14234     14232     14235     14236
     14234     14232     14235     14237     14234     14232     14235     14238
     14235     14238     14241     14242     14235     14238     14241     14243
     14235     14238     14241     14244     14236     14235     14238     14239
     14236     14235     14238     14240     14236     14235     14238     14241
     14237     14235     14238     14239     14237     14235     14238     14240
     14237     14235     14238     14241     14238     14241     14244     14245
     14238     14241     14244     14246     14238     14241     14244     14247
     14239     14238     14241     14242     14239     14238     14241     14243
     14239     14238     14241     14244     14240     14238     14241     14242
     14240     14238     14241     14243     14240     14238     14241     14244
     14241     14244     14247     14248     14241     14244     14247     14249
     14241     14244     14247     14250     14242     14241     14244     14245
     14242     14241     14244     14246     14242     14241     14244     14247
     14243     14241     14244     14245     14243     14241     14244     14246
     14243     14241     14244     14247     14244     14247     14250     14251
     14244     14247     14250     14252     14244     14247     14250     14253
     14245     14244     14247     14248     14245     14244     14247     14249
     14245     14244     14247     14250     14246     14244     14247     14248
     14246     14244     14247     14249     14246     14244     14247     14250
     14247     14250     14253     14254     14247     14250     14253     14255
     14247     14250     14253     14256     14248     14247     14250     14251
     14248     14247     14250     14252     14248     14247     14250     14253
     14249     14247     14250     14251     14249     14247     14250     14252
     14249     14247     14250     14253     14250     14253     14256     14257
     14250     14253     14256     14258     14250     14253     14256     14259
     14251     14250     14253     14254     14251     14250     14253     14255
     14251     14250     14253     14256     14252     14250     14253     14254
     14252     14250     14253     14255     14252     14250     14253     14256
     14253     14256     14259     14260     14253     14256     14259     14261
     14253     14256     14259     14262     14254     14253     14256     14257
     14254     14253     14256     14258     14254     14253     14256     14259
     14255     14253     14256     14257     14255     14253     14256     14258
     14255     14253     14256     14259     14256     14259     14262     14263
     14256     14259     14262     14264     14256     14259     14262     14265
     14257     14256     14259     14260     14257     14256     14259     14261
     14257     14256     14259     14262     14258     14256     14259     14260
     14258     14256     14259     14261     14258     14256     14259     14262
     14259     14262     14265     14266     14259     14262     14265     14267
     14259     14262     14265     14268     14260     14259     14262     14263
     14260     14259     14262     14264     14260     14259     14262     14265
     14261     14259     14262     14263     14261     14259     14262     14264
     14261     14259     14262     14265     14262     14265     14268     14269
     14262     14265     14268     14270     14262     14265     14268     14271
     14263     14262     14265     14266     14263     14262     14265     14267
     14263     14262     14265     14268     14264     14262     14265     14266
     14264     14262     14265     14267     14264     14262     14265     14268
     14265     14268     14271     14272     14265     14268     14271     14273
     14265     14268     14271     14274     14266     14265     14268     14269
     14266     14265     14268     14270     14266     14265     14268     14271
     14267     14265     14268     14269     14267     14265     14268     14270
     14267     14265     14268     14271     14268     14271     14274     14275
     14268     14271     14274     14276     14268     14271     14274     14277
     14269     14268     14271     14272     14269     14268     14271     14273
     14269     14268     14271     14274     14270     14268     14271     14272
     14270     14268     14271     14273     14270     14268     14271     14274
     14271     14274     14277     14278     14271     14274     14277     14279
     14271     14274     14277     14280     14272     14271     14274     14275
     14272     14271     14274     14276     14272     14271     14274     14277
     14273     14271     14274     14275     14273     14271     14274     14276
     14273     14271     14274     14277     14275     14274     14277     14278
     14275     14274     14277     14279     14275     14274     14277     14280
     14276     14274     14277     14278     14276     14274     14277     14279
     14276     14274     14277     14280     14281     14285     14288     14289
     14281     14285     14288     14290     14281     14285     14288     14294
     14282     14281     14285     14286     14282     14281     14285     14287
     14282     14281     14285     14288     14283     14281     14285     14286
     14283     14281     14285     14287     14283     14281     14285     14288
     14284     14281     14285     14286     14284     14281     14285     14287
     14284     14281     14285     14288     14285     14288     14294     14291
     14286     14285     14288     14289     14286     14285     14288     14290
     14286     14285     14288     14294     14287     14285     14288     14289
     14287     14285     14288     14290     14287     14285     14288     14294
     14288     14294     14291     14292     14288     14294     14291     14293
     14288     14294     14291     14295     14289     14288     14294     14291
     14290     14288     14294     14291     14291     14295     14296     14297
     14291     14295     14296     14298     14291     14295     14296     14299
     14292     14291     14295     14296     14293     14291     14295     14296
     14294     14291     14295     14296     14295     14296     14299     14300
     14295     14296     14299     14301     14295     14296     14299     14307
     14296     14299     14301     14302     14296     14299     14307     14308
     14296     14299     14307     14309     14296     14299     14307     14310
     14297     14296     14299     14300     14297     14296     14299     14301
     14297     14296     14299     14307     14298     14296     14299     14300
     14298     14296     14299     14301     14298     14296     14299     14307
     14299     14301     14302     14303     14299     14301     14302     14304
     14299     14307     14310     14311     14300     14299     14301     14302
     14300     14299     14307     14308     14300     14299     14307     14309
     14300     14299     14307     14310     14301     14299     14307     14308
     14301     14299     14307     14309     14301     14299     14307     14310
     14301     14302     14304     14305     14301     14302     14304     14306
     14301     14302     14304     14316     14302     14301     14299     14307
     14302     14304     14316     14317     14302     14304     14316     14318
     14302     14304     14316     14319     14303     14302     14304     14305
     14303     14302     14304     14306     14303     14302     14304     14316
     14304     14316     14319     14320     14304     14316     14319     14321
     14304     14316     14319     14322     14305     14304     14316     14317
     14305     14304     14316     14318     14305     14304     14316     14319
     14306     14304     14316     14317     14306     14304     14316     14318
     14306     14304     14316     14319     14307     14310     14311     14312
     14307     14310     14311     14313     14308     14307     14310     14311
     14309     14307     14310     14311     14310     14311     14313     14314
     14310     14311     14313     14315     14310     14311     14313     14363
     14311     14313     14363     14364     14311     14313     14363     14365
     14311     14313     14363     14366     14312     14311     14313     14314
     14312     14311     14313     14315     14312     14311     14313     14363
     14313     14363     14366     14367     14313     14363     14366     14368
     14313     14363     14366     14369     14314     14313     14363     14364
     14314     14313     14363     14365     14314     14313     14363     14366
     14315     14313     14363     14364     14315     14313     14363     14365
     14315     14313     14363     14366     14316     14319     14322     14323
     14316     14319     14322     14324     14317     14316     14319     14320
     14317     14316     14319     14321     14317     14316     14319     14322
     14318     14316     14319     14320     14318     14316     14319     14321
     14318     14316     14319     14322     14319     14322     14324     14325
     14319     14322     14324     14326     14320     14319     14322     14323
     14320     14319     14322     14324     14321     14319     14322     14323
     14321     14319     14322     14324     14322     14324     14326     14327
     14322     14324     14326     14328     14322     14324     14326     14329
     14323     14322     14324     14325     14323     14322     14324     14326
     14324     14326     14329     14330     14324     14326     14329     14331
     14325     14324     14326     14327     14325     14324     14326     14328
     14325     14324     14326     14329     14326     14329     14331     14332
     14326     14329     14331     14333     14327     14326     14329     14330
     14327     14326     14329     14331     14328     14326     14329     14330
     14328     14326     14329     14331     14329     14331     14333     14334
     14329     14331     14333     14335     14329     14331     14333     14336
     14330     14329     14331     14332     14330     14329     14331     14333
     14331     14333     14336     14337     14331     14333     14336     14338
     14332     14331     14333     14334     14332     14331     14333     14335
     14332     14331     14333     14336     14333     14336     14338     14339
     14333     14336     14338     14340     14334     14333     14336     14337
     14334     14333     14336     14338     14335     14333     14336     14337
     14335     14333     14336     14338     14336     14338     14340     14341
     14336     14338     14340     14342     14336     14338     14340     14343
     14337     14336     14338     14339     14337     14336     14338     14340
     14338     14340     14343     14344     14338     14340     14343     14345
     14339     14338     14340     14341     14339     14338     14340     14342
     14339     14338     14340     14343     14340     14343     14345     14346
     14340     14343     14345     14347     14341     14340     14343     14344
     14341     14340     14343     14345     14342     14340     14343     14344
     14342     14340     14343     14345     14343     14345     14347     14348
     14343     14345     14347     14349     14343     14345     14347     14350
     14344     14343     14345     14346     14344     14343     14345     14347
     14345     14347     14350     14351     14345     14347     14350     14352
     14345     14347     14350     14353     14346     14345     14347     14348
     14346     14345     14347     14349     14346     14345     14347     14350
     14347     14350     14353     14354     14347     14350     14353     14355
     14347     14350     14353     14356     14348     14347     14350     14351
     14348     14347     14350     14352     14348     14347     14350     14353
     14349     14347     14350     14351     14349     14347     14350     14352
     14349     14347     14350     14353     14350     14353     14356     14357
     14350     14353     14356     14358     14350     14353     14356     14359
     14351     14350     14353     14354     14351     14350     14353     14355
     14351     14350     14353     14356     14352     14350     14353     14354
     14352     14350     14353     14355     14352     14350     14353     14356
     14353     14356     14359     14360     14353     14356     14359     14361
     14353     14356     14359     14362     14354     14353     14356     14357
     14354     14353     14356     14358     14354     14353     14356     14359
     14355     14353     14356     14357     14355     14353     14356     14358
     14355     14353     14356     14359     14357     14356     14359     14360
     14357     14356     14359     14361     14357     14356     14359     14362
     14358     14356     14359     14360     14358     14356     14359     14361
     14358     14356     14359     14362     14363     14366     14369     14370
     14363     14366     14369     14371     14363     14366     14369     14372
     14364     14363     14366     14367     14364     14363     14366     14368
     14364     14363     14366     14369     14365     14363     14366     14367
     14365     14363     14366     14368     14365     14363     14366     14369
     14366     14369     14372     14373     14366     14369     14372     14374
     14366     14369     14372     14375     14367     14366     14369     14370
     14367     14366     14369     14371     14367     14366     14369     14372
     14368     14366     14369     14370     14368     14366     14369     14371
     14368     14366     14369     14372     14369     14372     14375     14376
     14369     14372     14375     14377     14369     14372     14375     14378
     14370     14369     14372     14373     14370     14369     14372     14374
     14370     14369     14372     14375     14371     14369     14372     14373
     14371     14369     14372     14374     14371     14369     14372     14375
     14372     14375     14378     14379     14372     14375     14378     14380
     14372     14375     14378     14381     14373     14372     14375     14376
     14373     14372     14375     14377     14373     14372     14375     14378
     14374     14372     14375     14376     14374     14372     14375     14377
     14374     14372     14375     14378     14375     14378     14381     14382
     14375     14378     14381     14383     14375     14378     14381     14384
     14376     14375     14378     14379     14376     14375     14378     14380
     14376     14375     14378     14381     14377     14375     14378     14379
     14377     14375     14378     14380     14377     14375     14378     14381
     14378     14381     14384     14385     14378     14381     14384     14386
     14378     14381     14384     14387     14379     14378     14381     14382
     14379     14378     14381     14383     14379     14378     14381     14384
     14380     14378     14381     14382     14380     14378     14381     14383
     14380     14378     14381     14384     14381     14384     14387     14388
     14381     14384     14387     14389     14381     14384     14387     14390
     14382     14381     14384     14385     14382     14381     14384     14386
     14382     14381     14384     14387     14383     14381     14384     14385
     14383     14381     14384     14386     14383     14381     14384     14387
     14384     14387     14390     14391     14384     14387     14390     14392
     14384     14387     14390     14393     14385     14384     14387     14388
     14385     14384     14387     14389     14385     14384     14387     14390
     14386     14384     14387     14388     14386     14384     14387     14389
     14386     14384     14387     14390     14387     14390     14393     14394
     14387     14390     14393     14395     14387     14390     14393     14396
     14388     14387     14390     14391     14388     14387     14390     14392
     14388     14387     14390     14393     14389     14387     14390     14391
     14389     14387     14390     14392     14389     14387     14390     14393
     14390     14393     14396     14397     14390     14393     14396     14398
     14390     14393     14396     14399     14391     14390     14393     14394
     14391     14390     14393     14395     14391     14390     14393     14396
     14392     14390     14393     14394     14392     14390     14393     14395
     14392     14390     14393     14396     14393     14396     14399     14400
     14393     14396     14399     14401     14393     14396     14399     14402
     14394     14393     14396     14397     14394     14393     14396     14398
     14394     14393     14396     14399     14395     14393     14396     14397
     14395     14393     14396     14398     14395     14393     14396     14399
     14396     14399     14402     14403     14396     14399     14402     14404
     14396     14399     14402     14405     14397     14396     14399     14400
     14397     14396     14399     14401     14397     14396     14399     14402
     14398     14396     14399     14400     14398     14396     14399     14401
     14398     14396     14399     14402     14399     14402     14405     14406
     14399     14402     14405     14407     14399     14402     14405     14408
     14400     14399     14402     14403     14400     14399     14402     14404
     14400     14399     14402     14405     14401     14399     14402     14403
     14401     14399     14402     14404     14401     14399     14402     14405
     14402     14405     14408     14409     14402     14405     14408     14410
     14402     14405     14408     14411     14403     14402     14405     14406
     14403     14402     14405     14407     14403     14402     14405     14408
     14404     14402     14405     14406     14404     14402     14405     14407
     14404     14402     14405     14408     14406     14405     14408     14409
     14406     14405     14408     14410     14406     14405     14408     14411
     14407     14405     14408     14409     14407     14405     14408     14410
     14407     14405     14408     14411     14412     14425     14428     14429
     14412     14425     14428     14430     14412     14425     14428     14434
     14413     14412     14417     14418     14413     14412     14417     14419
     14413     14412     14417     14420     14413     14412     14421     14422
     14413     14412     14421     14423     14413     14412     14421     14424
     14413     14412     14425     14426     14413     14412     14425     14427
     14413     14412     14425     14428     14414     14413     14412     14417
     14414     14413     14412     14421     14414     14413     14412     14425
     14415     14413     14412     14417     14415     14413     14412     14421
     14415     14413     14412     14425     14416     14413     14412     14417
     14416     14413     14412     14421     14416     14413     14412     14425
     14417     14412     14421     14422     14417     14412     14421     14423
     14417     14412     14421     14424     14417     14412     14425     14426
     14417     14412     14425     14427     14417     14412     14425     14428
     14418     14417     14412     14421     14418     14417     14412     14425
     14419     14417     14412     14421     14419     14417     14412     14425
     14420     14417     14412     14421     14420     14417     14412     14425
     14421     14412     14425     14426     14421     14412     14425     14427
     14421     14412     14425     14428     14422     14421     14412     14425
     14423     14421     14412     14425     14424     14421     14412     14425
     14425     14428     14434     14431     14426     14425     14428     14429
     14426     14425     14428     14430     14426     14425     14428     14434
     14427     14425     14428     14429     14427     14425     14428     14430
     14427     14425     14428     14434     14428     14434     14431     14432
     14428     14434     14431     14433     14428     14434     14431     14435
     14429     14428     14434     14431     14430     14428     14434     14431
     14431     14435     14436     14437     14431     14435     14436     14438
     14431     14435     14436     14439     14432     14431     14435     14436
     14433     14431     14435     14436     14434     14431     14435     14436
     14435     14436     14439     14440     14435     14436     14439     14441
     14435     14436     14439     14447     14436     14439     14441     14442
     14436     14439     14447     14448     14436     14439     14447     14449
     14436     14439     14447     14450     14437     14436     14439     14440
     14437     14436     14439     14441     14437     14436     14439     14447
     14438     14436     14439     14440     14438     14436     14439     14441
     14438     14436     14439     14447     14439     14441     14442     14443
     14439     14441     14442     14444     14439     14447     14450     14451
     14440     14439     14441     14442     14440     14439     14447     14448
     14440     14439     14447     14449     14440     14439     14447     14450
     14441     14439     14447     14448     14441     14439     14447     14449
     14441     14439     14447     14450     14441     14442     14444     14445
     14441     14442     14444     14446     14441     14442     14444     14456
     14442     14441     14439     14447     14442     14444     14456     14457
     14442     14444     14456     14458     14442     14444     14456     14459
     14443     14442     14444     14445     14443     14442     14444     14446
     14443     14442     14444     14456     14444     14456     14459     14460
     14444     14456     14459     14461     14444     14456     14459     14462
     14445     14444     14456     14457     14445     14444     14456     14458
     14445     14444     14456     14459     14446     14444     14456     14457
     14446     14444     14456     14458     14446     14444     14456     14459
     14447     14450     14451     14452     14447     14450     14451     14453
     14448     14447     14450     14451     14449     14447     14450     14451
     14450     14451     14453     14454     14450     14451     14453     14455
     14450     14451     14453     14501     14451     14453     14501     14502
     14451     14453     14501     14503     14451     14453     14501     14504
     14452     14451     14453     14454     14452     14451     14453     14455
     14452     14451     14453     14501     14453     14501     14504     14505
     14453     14501     14504     14506     14453     14501     14504     14507
     14454     14453     14501     14502     14454     14453     14501     14503
     14454     14453     14501     14504     14455     14453     14501     14502
     14455     14453     14501     14503     14455     14453     14501     14504
     14456     14459     14462     14463     14456     14459     14462     14464
     14456     14459     14462     14465     14457     14456     14459     14460
     14457     14456     14459     14461     14457     14456     14459     14462
     14458     14456     14459     14460     14458     14456     14459     14461
     14458     14456     14459     14462     14459     14462     14465     14466
     14459     14462     14465     14467     14459     14462     14465     14468
     14460     14459     14462     14463     14460     14459     14462     14464
     14460     14459     14462     14465     14461     14459     14462     14463
     14461     14459     14462     14464     14461     14459     14462     14465
     14462     14465     14468     14469     14462     14465     14468     14470
     14462     14465     14468     14471     14463     14462     14465     14466
     14463     14462     14465     14467     14463     14462     14465     14468
     14464     14462     14465     14466     14464     14462     14465     14467
     14464     14462     14465     14468     14465     14468     14471     14472
     14465     14468     14471     14473     14465     14468     14471     14474
     14466     14465     14468     14469     14466     14465     14468     14470
     14466     14465     14468     14471     14467     14465     14468     14469
     14467     14465     14468     14470     14467     14465     14468     14471
     14468     14471     14474     14475     14468     14471     14474     14476
     14469     14468     14471     14472     14469     14468     14471     14473
     14469     14468     14471     14474     14470     14468     14471     14472
     14470     14468     14471     14473     14470     14468     14471     14474
     14471     14474     14476     14477     14471     14474     14476     14478
     14472     14471     14474     14475     14472     14471     14474     14476
     14473     14471     14474     14475     14473     14471     14474     14476
     14474     14476     14478     14479     14474     14476     14478     14480
     14474     14476     14478     14481     14475     14474     14476     14477
     14475     14474     14476     14478     14476     14478     14481     14482
     14476     14478     14481     14483     14477     14476     14478     14479
     14477     14476     14478     14480     14477     14476     14478     14481
     14478     14481     14483     14484     14478     14481     14483     14485
     14479     14478     14481     14482     14479     14478     14481     14483
     14480     14478     14481     14482     14480     14478     14481     14483
     14481     14483     14485     14486     14481     14483     14485     14487
     14481     14483     14485     14488     14482     14481     14483     14484
     14482     14481     14483     14485     14483     14485     14488     14489
     14483     14485     14488     14490     14483     14485     14488     14491
     14484     14483     14485     14486     14484     14483     14485     14487
     14484     14483     14485     14488     14485     14488     14491     14492
     14485     14488     14491     14493     14485     14488     14491     14494
     14486     14485     14488     14489     14486     14485     14488     14490
     14486     14485     14488     14491     14487     14485     14488     14489
     14487     14485     14488     14490     14487     14485     14488     14491
     14488     14491     14494     14495     14488     14491     14494     14496
     14488     14491     14494     14497     14489     14488     14491     14492
     14489     14488     14491     14493     14489     14488     14491     14494
     14490     14488     14491     14492     14490     14488     14491     14493
     14490     14488     14491     14494     14491     14494     14497     14498
     14491     14494     14497     14499     14491     14494     14497     14500
     14492     14491     14494     14495     14492     14491     14494     14496
     14492     14491     14494     14497     14493     14491     14494     14495
     14493     14491     14494     14496     14493     14491     14494     14497
     14495     14494     14497     14498     14495     14494     14497     14499
     14495     14494     14497     14500     14496     14494     14497     14498
     14496     14494     14497     14499     14496     14494     14497     14500
     14501     14504     14507     14508     14501     14504     14507     14509
     14501     14504     14507     14510     14502     14501     14504     14505
     14502     14501     14504     14506     14502     14501     14504     14507
     14503     14501     14504     14505     14503     14501     14504     14506
     14503     14501     14504     14507     14504     14507     14510     14511
     14504     14507     14510     14512     14504     14507     14510     14513
     14505     14504     14507     14508     14505     14504     14507     14509
     14505     14504     14507     14510     14506     14504     14507     14508
     14506     14504     14507     14509     14506     14504     14507     14510
     14507     14510     14513     14514     14507     14510     14513     14515
     14507     14510     14513     14516     14508     14507     14510     14511
     14508     14507     14510     14512     14508     14507     14510     14513
     14509     14507     14510     14511     14509     14507     14510     14512
     14509     14507     14510     14513     14510     14513     14516     14517
     14510     14513     14516     14518     14510     14513     14516     14519
     14511     14510     14513     14514     14511     14510     14513     14515
     14511     14510     14513     14516     14512     14510     14513     14514
     14512     14510     14513     14515     14512     14510     14513     14516
     14513     14516     14519     14520     14513     14516     14519     14521
     14513     14516     14519     14522     14514     14513     14516     14517
     14514     14513     14516     14518     14514     14513     14516     14519
     14515     14513     14516     14517     14515     14513     14516     14518
     14515     14513     14516     14519     14516     14519     14522     14523
     14516     14519     14522     14524     14516     14519     14522     14525
     14517     14516     14519     14520     14517     14516     14519     14521
     14517     14516     14519     14522     14518     14516     14519     14520
     14518     14516     14519     14521     14518     14516     14519     14522
     14519     14522     14525     14526     14519     14522     14525     14527
     14519     14522     14525     14528     14520     14519     14522     14523
     14520     14519     14522     14524     14520     14519     14522     14525
     14521     14519     14522     14523     14521     14519     14522     14524
     14521     14519     14522     14525     14522     14525     14528     14529
     14522     14525     14528     14530     14522     14525     14528     14531
     14523     14522     14525     14526     14523     14522     14525     14527
     14523     14522     14525     14528     14524     14522     14525     14526
     14524     14522     14525     14527     14524     14522     14525     14528
     14525     14528     14531     14532     14525     14528     14531     14533
     14525     14528     14531     14534     14526     14525     14528     14529
     14526     14525     14528     14530     14526     14525     14528     14531
     14527     14525     14528     14529     14527     14525     14528     14530
     14527     14525     14528     14531     14528     14531     14534     14535
     14528     14531     14534     14536     14528     14531     14534     14537
     14529     14528     14531     14532     14529     14528     14531     14533
     14529     14528     14531     14534     14530     14528     14531     14532
     14530     14528     14531     14533     14530     14528     14531     14534
     14531     14534     14537     14538     14531     14534     14537     14539
     14531     14534     14537     14540     14532     14531     14534     14535
     14532     14531     14534     14536     14532     14531     14534     14537
     14533     14531     14534     14535     14533     14531     14534     14536
     14533     14531     14534     14537     14534     14537     14540     14541
     14534     14537     14540     14542     14534     14537     14540     14543
     14535     14534     14537     14538     14535     14534     14537     14539
     14535     14534     14537     14540     14536     14534     14537     14538
     14536     14534     14537     14539     14536     14534     14537     14540
     14537     14540     14543     14544     14537     14540     14543     14545
     14537     14540     14543     14546     14538     14537     14540     14541
     14538     14537     14540     14542     14538     14537     14540     14543
     14539     14537     14540     14541     14539     14537     14540     14542
     14539     14537     14540     14543     14540     14543     14546     14547
     14540     14543     14546     14548     14540     14543     14546     14549
     14541     14540     14543     14544     14541     14540     14543     14545
     14541     14540     14543     14546     14542     14540     14543     14544
     14542     14540     14543     14545     14542     14540     14543     14546
     14544     14543     14546     14547     14544     14543     14546     14548
     14544     14543     14546     14549     14545     14543     14546     14547
     14545     14543     14546     14548     14545     14543     14546     14549
     14550     14563     14566     14567     14550     14563     14566     14568
     14550     14563     14566     14573     14551     14550     14555     14556
     14551     14550     14555     14557     14551     14550     14555     14558
     14551     14550     14559     14560     14551     14550     14559     14561
     14551     14550     14559     14562     14551     14550     14563     14564
     14551     14550     14563     14565     14551     14550     14563     14566
     14552     14551     14550     14555     14552     14551     14550     14559
     14552     14551     14550     14563     14553     14551     14550     14555
     14553     14551     14550     14559     14553     14551     14550     14563
     14554     14551     14550     14555     14554     14551     14550     14559
     14554     14551     14550     14563     14555     14550     14559     14560
     14555     14550     14559     14561     14555     14550     14559     14562
     14555     14550     14563     14564     14555     14550     14563     14565
     14555     14550     14563     14566     14556     14555     14550     14559
     14556     14555     14550     14563     14557     14555     14550     14559
     14557     14555     14550     14563     14558     14555     14550     14559
     14558     14555     14550     14563     14559     14550     14563     14564
     14559     14550     14563     14565     14559     14550     14563     14566
     14560     14559     14550     14563     14561     14559     14550     14563
     14562     14559     14550     14563     14563     14566     14573     14569
     14564     14563     14566     14567     14564     14563     14566     14568
     14564     14563     14566     14573     14565     14563     14566     14567
     14565     14563     14566     14568     14565     14563     14566     14573
     14566     14573     14569     14570     14566     14573     14569     14571
     14566     14573     14569     14572     14567     14566     14573     14569
     14568     14566     14573     14569     14569     14572     14574     14575
     14569     14572     14574     14576     14569     14572     14574     14579
     14570     14569     14572     14574     14571     14569     14572     14574
     14572     14574     14579     14577     14572     14574     14579     14580
     14572     14574     14579     14581     14573     14569     14572     14574
     14574     14579     14577     14578     14574     14579     14577     14629
     14574     14579     14581     14582     14574     14579     14581     14583
     14574     14579     14581     14585     14575     14574     14579     14577
     14575     14574     14579     14580     14575     14574     14579     14581
     14576     14574     14579     14577     14576     14574     14579     14580
     14576     14574     14579     14581     14577     14579     14581     14582
     14577     14579     14581     14583     14577     14579     14581     14585
     14577     14629     14631     14632     14577     14629     14631     14633
     14577     14629     14631     14634     14578     14577     14579     14580
     14578     14577     14579     14581     14578     14577     14629     14630
     14578     14577     14629     14631     14579     14577     14629     14630
     14579     14577     14629     14631     14579     14581     14583     14584
     14579     14581     14585     14586     14579     14581     14585     14587
     14580     14579     14577     14629     14580     14579     14581     14582
     14580     14579     14581     14583     14580     14579     14581     14585
     14581     14579     14577     14629     14581     14585     14587     14588
     14581     14585     14587     14589     14582     14581     14583     14584
     14582     14581     14585     14586     14582     14581     14585     14587
     14583     14581     14585     14586     14583     14581     14585     14587
     14584     14583     14581     14585     14585     14587     14589     14590
     14585     14587     14589     14591     14585     14587     14589     14592
     14586     14585     14587     14588     14586     14585     14587     14589
     14587     14589     14592     14593     14587     14589     14592     14594
     14587     14589     14592     14595     14588     14587     14589     14590
     14588     14587     14589     14591     14588     14587     14589     14592
     14589     14592     14595     14596     14589     14592     14595     14597
     14589     14592     14595     14598     14590     14589     14592     14593
     14590     14589     14592     14594     14590     14589     14592     14595
     14591     14589     14592     14593     14591     14589     14592     14594
     14591     14589     14592     14595     14592     14595     14598     14599
     14592     14595     14598     14600     14592     14595     14598     14601
     14593     14592     14595     14596     14593     14592     14595     14597
     14593     14592     14595     14598     14594     14592     14595     14596
     14594     14592     14595     14597     14594     14592     14595     14598
     14595     14598     14601     14602     14595     14598     14601     14603
     14595     14598     14601     14604     14596     14595     14598     14599
     14596     14595     14598     14600     14596     14595     14598     14601
     14597     14595     14598     14599     14597     14595     14598     14600
     14597     14595     14598     14601     14598     14601     14604     14605
     14598     14601     14604     14606     14598     14601     14604     14607
     14599     14598     14601     14602     14599     14598     14601     14603
     14599     14598     14601     14604     14600     14598     14601     14602
     14600     14598     14601     14603     14600     14598     14601     14604
     14601     14604     14607     14608     14601     14604     14607     14609
     14601     14604     14607     14610     14602     14601     14604     14605
     14602     14601     14604     14606     14602     14601     14604     14607
     14603     14601     14604     14605     14603     14601     14604     14606
     14603     14601     14604     14607     14604     14607     14610     14611
     14604     14607     14610     14612     14604     14607     14610     14613
     14605     14604     14607     14608     14605     14604     14607     14609
     14605     14604     14607     14610     14606     14604     14607     14608
     14606     14604     14607     14609     14606     14604     14607     14610
     14607     14610     14613     14614     14607     14610     14613     14615
     14607     14610     14613     14616     14608     14607     14610     14611
     14608     14607     14610     14612     14608     14607     14610     14613
     14609     14607     14610     14611     14609     14607     14610     14612
     14609     14607     14610     14613     14610     14613     14616     14617
     14610     14613     14616     14618     14610     14613     14616     14619
     14611     14610     14613     14614     14611     14610     14613     14615
     14611     14610     14613     14616     14612     14610     14613     14614
     14612     14610     14613     14615     14612     14610     14613     14616
     14613     14616     14619     14620     14613     14616     14619     14621
     14613     14616     14619     14622     14614     14613     14616     14617
     14614     14613     14616     14618     14614     14613     14616     14619
     14615     14613     14616     14617     14615     14613     14616     14618
     14615     14613     14616     14619     14616     14619     14622     14623
     14616     14619     14622     14624     14616     14619     14622     14625
     14617     14616     14619     14620     14617     14616     14619     14621
     14617     14616     14619     14622     14618     14616     14619     14620
     14618     14616     14619     14621     14618     14616     14619     14622
     14619     14622     14625     14626     14619     14622     14625     14627
     14619     14622     14625     14628     14620     14619     14622     14623
     14620     14619     14622     14624     14620     14619     14622     14625
     14621     14619     14622     14623     14621     14619     14622     14624
     14621     14619     14622     14625     14623     14622     14625     14626
     14623     14622     14625     14627     14623     14622     14625     14628
     14624     14622     14625     14626     14624     14622     14625     14627
     14624     14622     14625     14628     14629     14631     14634     14635
     14629     14631     14634     14636     14629     14631     14634     14637
     14630     14629     14631     14632     14630     14629     14631     14633
     14630     14629     14631     14634     14631     14634     14637     14638
     14631     14634     14637     14639     14631     14634     14637     14640
     14632     14631     14634     14635     14632     14631     14634     14636
     14632     14631     14634     14637     14633     14631     14634     14635
     14633     14631     14634     14636     14633     14631     14634     14637
     14634     14637     14640     14641     14634     14637     14640     14642
     14634     14637     14640     14643     14635     14634     14637     14638
     14635     14634     14637     14639     14635     14634     14637     14640
     14636     14634     14637     14638     14636     14634     14637     14639
     14636     14634     14637     14640     14637     14640     14643     14644
     14637     14640     14643     14645     14637     14640     14643     14646
     14638     14637     14640     14641     14638     14637     14640     14642
     14638     14637     14640     14643     14639     14637     14640     14641
     14639     14637     14640     14642     14639     14637     14640     14643
     14640     14643     14646     14647     14640     14643     14646     14648
     14640     14643     14646     14649     14641     14640     14643     14644
     14641     14640     14643     14645     14641     14640     14643     14646
     14642     14640     14643     14644     14642     14640     14643     14645
     14642     14640     14643     14646     14643     14646     14649     14650
     14643     14646     14649     14651     14643     14646     14649     14652
     14644     14643     14646     14647     14644     14643     14646     14648
     14644     14643     14646     14649     14645     14643     14646     14647
     14645     14643     14646     14648     14645     14643     14646     14649
     14646     14649     14652     14653     14646     14649     14652     14654
     14647     14646     14649     14650     14647     14646     14649     14651
     14647     14646     14649     14652     14648     14646     14649     14650
     14648     14646     14649     14651     14648     14646     14649     14652
     14649     14652     14654     14655     14649     14652     14654     14656
     14650     14649     14652     14653     14650     14649     14652     14654
     14651     14649     14652     14653     14651     14649     14652     14654
     14652     14654     14656     14657     14652     14654     14656     14658
     14652     14654     14656     14659     14653     14652     14654     14655
     14653     14652     14654     14656     14654     14656     14659     14660
     14654     14656     14659     14661     14654     14656     14659     14662
     14655     14654     14656     14657     14655     14654     14656     14658
     14655     14654     14656     14659     14656     14659     14662     14663
     14656     14659     14662     14664     14656     14659     14662     14665
     14657     14656     14659     14660     14657     14656     14659     14661
     14657     14656     14659     14662     14658     14656     14659     14660
     14658     14656     14659     14661     14658     14656     14659     14662
     14659     14662     14665     14666     14659     14662     14665     14667
     14659     14662     14665     14668     14660     14659     14662     14663
     14660     14659     14662     14664     14660     14659     14662     14665
     14661     14659     14662     14663     14661     14659     14662     14664
     14661     14659     14662     14665     14662     14665     14668     14669
     14662     14665     14668     14670     14662     14665     14668     14671
     14663     14662     14665     14666     14663     14662     14665     14667
     14663     14662     14665     14668     14664     14662     14665     14666
     14664     14662     14665     14667     14664     14662     14665     14668
     14665     14668     14671     14672     14665     14668     14671     14673
     14665     14668     14671     14674     14666     14665     14668     14669
     14666     14665     14668     14670     14666     14665     14668     14671
     14667     14665     14668     14669     14667     14665     14668     14670
     14667     14665     14668     14671     14668     14671     14674     14675
     14668     14671     14674     14676     14668     14671     14674     14677
     14669     14668     14671     14672     14669     14668     14671     14673
     14669     14668     14671     14674     14670     14668     14671     14672
     14670     14668     14671     14673     14670     14668     14671     14674
     14671     14674     14677     14678     14671     14674     14677     14679
     14671     14674     14677     14680     14672     14671     14674     14675
     14672     14671     14674     14676     14672     14671     14674     14677
     14673     14671     14674     14675     14673     14671     14674     14676
     14673     14671     14674     14677     14675     14674     14677     14678
     14675     14674     14677     14679     14675     14674     14677     14680
     14676     14674     14677     14678     14676     14674     14677     14679
     14676     14674     14677     14680     14681     14694     14697     14698
     14681     14694     14697     14699     14681     14694     14697     14704
     14682     14681     14686     14687     14682     14681     14686     14688
     14682     14681     14686     14689     14682     14681     14690     14691
     14682     14681     14690     14692     14682     14681     14690     14693
     14682     14681     14694     14695     14682     14681     14694     14696
     14682     14681     14694     14697     14683     14682     14681     14686
     14683     14682     14681     14690     14683     14682     14681     14694
     14684     14682     14681     14686     14684     14682     14681     14690
     14684     14682     14681     14694     14685     14682     14681     14686
     14685     14682     14681     14690     14685     14682     14681     14694
     14686     14681     14690     14691     14686     14681     14690     14692
     14686     14681     14690     14693     14686     14681     14694     14695
     14686     14681     14694     14696     14686     14681     14694     14697
     14687     14686     14681     14690     14687     14686     14681     14694
     14688     14686     14681     14690     14688     14686     14681     14694
     14689     14686     14681     14690     14689     14686     14681     14694
     14690     14681     14694     14695     14690     14681     14694     14696
     14690     14681     14694     14697     14691     14690     14681     14694
     14692     14690     14681     14694     14693     14690     14681     14694
     14694     14697     14704     14700     14695     14694     14697     14698
     14695     14694     14697     14699     14695     14694     14697     14704
     14696     14694     14697     14698     14696     14694     14697     14699
     14696     14694     14697     14704     14697     14704     14700     14701
     14697     14704     14700     14702     14697     14704     14700     14703
     14698     14697     14704     14700     14699     14697     14704     14700
     14700     14703     14705     14706     14700     14703     14705     14707
     14700     14703     14705     14710     14701     14700     14703     14705
     14702     14700     14703     14705     14703     14705     14710     14708
     14703     14705     14710     14711     14703     14705     14710     14712
     14704     14700     14703     14705     14705     14710     14708     14709
     14705     14710     14708     14760     14705     14710     14712     14713
     14705     14710     14712     14714     14705     14710     14712     14716
     14706     14705     14710     14708     14706     14705     14710     14711
     14706     14705     14710     14712     14707     14705     14710     14708
     14707     14705     14710     14711     14707     14705     14710     14712
     14708     14710     14712     14713     14708     14710     14712     14714
     14708     14710     14712     14716     14708     14760     14762     14763
     14708     14760     14762     14764     14708     14760     14762     14765
     14709     14708     14710     14711     14709     14708     14710     14712
     14709     14708     14760     14761     14709     14708     14760     14762
     14710     14708     14760     14761     14710     14708     14760     14762
     14710     14712     14714     14715     14710     14712     14716     14717
     14710     14712     14716     14718     14711     14710     14708     14760
     14711     14710     14712     14713     14711     14710     14712     14714
     14711     14710     14712     14716     14712     14710     14708     14760
     14712     14716     14718     14719     14712     14716     14718     14720
     14713     14712     14714     14715     14713     14712     14716     14717
     14713     14712     14716     14718     14714     14712     14716     14717
     14714     14712     14716     14718     14715     14714     14712     14716
     14716     14718     14720     14721     14716     14718     14720     14722
     14716     14718     14720     14723     14717     14716     14718     14719
     14717     14716     14718     14720     14718     14720     14723     14724
     14718     14720     14723     14725     14718     14720     14723     14726
     14719     14718     14720     14721     14719     14718     14720     14722
     14719     14718     14720     14723     14720     14723     14726     14727
     14720     14723     14726     14728     14720     14723     14726     14729
     14721     14720     14723     14724     14721     14720     14723     14725
     14721     14720     14723     14726     14722     14720     14723     14724
     14722     14720     14723     14725     14722     14720     14723     14726
     14723     14726     14729     14730     14723     14726     14729     14731
     14723     14726     14729     14732     14724     14723     14726     14727
     14724     14723     14726     14728     14724     14723     14726     14729
     14725     14723     14726     14727     14725     14723     14726     14728
     14725     14723     14726     14729     14726     14729     14732     14733
     14726     14729     14732     14734     14726     14729     14732     14735
     14727     14726     14729     14730     14727     14726     14729     14731
     14727     14726     14729     14732     14728     14726     14729     14730
     14728     14726     14729     14731     14728     14726     14729     14732
     14729     14732     14735     14736     14729     14732     14735     14737
     14729     14732     14735     14738     14730     14729     14732     14733
     14730     14729     14732     14734     14730     14729     14732     14735
     14731     14729     14732     14733     14731     14729     14732     14734
     14731     14729     14732     14735     14732     14735     14738     14739
     14732     14735     14738     14740     14732     14735     14738     14741
     14733     14732     14735     14736     14733     14732     14735     14737
     14733     14732     14735     14738     14734     14732     14735     14736
     14734     14732     14735     14737     14734     14732     14735     14738
     14735     14738     14741     14742     14735     14738     14741     14743
     14735     14738     14741     14744     14736     14735     14738     14739
     14736     14735     14738     14740     14736     14735     14738     14741
     14737     14735     14738     14739     14737     14735     14738     14740
     14737     14735     14738     14741     14738     14741     14744     14745
     14738     14741     14744     14746     14738     14741     14744     14747
     14739     14738     14741     14742     14739     14738     14741     14743
     14739     14738     14741     14744     14740     14738     14741     14742
     14740     14738     14741     14743     14740     14738     14741     14744
     14741     14744     14747     14748     14741     14744     14747     14749
     14741     14744     14747     14750     14742     14741     14744     14745
     14742     14741     14744     14746     14742     14741     14744     14747
     14743     14741     14744     14745     14743     14741     14744     14746
     14743     14741     14744     14747     14744     14747     14750     14751
     14744     14747     14750     14752     14744     14747     14750     14753
     14745     14744     14747     14748     14745     14744     14747     14749
     14745     14744     14747     14750     14746     14744     14747     14748
     14746     14744     14747     14749     14746     14744     14747     14750
     14747     14750     14753     14754     14747     14750     14753     14755
     14747     14750     14753     14756     14748     14747     14750     14751
     14748     14747     14750     14752     14748     14747     14750     14753
     14749     14747     14750     14751     14749     14747     14750     14752
     14749     14747     14750     14753     14750     14753     14756     14757
     14750     14753     14756     14758     14750     14753     14756     14759
     14751     14750     14753     14754     14751     14750     14753     14755
     14751     14750     14753     14756     14752     14750     14753     14754
     14752     14750     14753     14755     14752     14750     14753     14756
     14754     14753     14756     14757     14754     14753     14756     14758
     14754     14753     14756     14759     14755     14753     14756     14757
     14755     14753     14756     14758     14755     14753     14756     14759
     14760     14762     14765     14766     14760     14762     14765     14767
     14760     14762     14765     14768     14761     14760     14762     14763
     14761     14760     14762     14764     14761     14760     14762     14765
     14762     14765     14768     14769     14762     14765     14768     14770
     14762     14765     14768     14771     14763     14762     14765     14766
     14763     14762     14765     14767     14763     14762     14765     14768
     14764     14762     14765     14766     14764     14762     14765     14767
     14764     14762     14765     14768     14765     14768     14771     14772
     14765     14768     14771     14773     14765     14768     14771     14774
     14766     14765     14768     14769     14766     14765     14768     14770
     14766     14765     14768     14771     14767     14765     14768     14769
     14767     14765     14768     14770     14767     14765     14768     14771
     14768     14771     14774     14775     14768     14771     14774     14776
     14768     14771     14774     14777     14769     14768     14771     14772
     14769     14768     14771     14773     14769     14768     14771     14774
     14770     14768     14771     14772     14770     14768     14771     14773
     14770     14768     14771     14774     14771     14774     14777     14778
     14771     14774     14777     14779     14771     14774     14777     14780
     14772     14771     14774     14775     14772     14771     14774     14776
     14772     14771     14774     14777     14773     14771     14774     14775
     14773     14771     14774     14776     14773     14771     14774     14777
     14774     14777     14780     14781     14774     14777     14780     14782
     14774     14777     14780     14783     14775     14774     14777     14778
     14775     14774     14777     14779     14775     14774     14777     14780
     14776     14774     14777     14778     14776     14774     14777     14779
     14776     14774     14777     14780     14777     14780     14783     14784
     14777     14780     14783     14785     14778     14777     14780     14781
     14778     14777     14780     14782     14778     14777     14780     14783
     14779     14777     14780     14781     14779     14777     14780     14782
     14779     14777     14780     14783     14780     14783     14785     14786
     14780     14783     14785     14787     14781     14780     14783     14784
     14781     14780     14783     14785     14782     14780     14783     14784
     14782     14780     14783     14785     14783     14785     14787     14788
     14783     14785     14787     14789     14783     14785     14787     14790
     14784     14783     14785     14786     14784     14783     14785     14787
     14785     14787     14790     14791     14785     14787     14790     14792
     14785     14787     14790     14793     14786     14785     14787     14788
     14786     14785     14787     14789     14786     14785     14787     14790
     14787     14790     14793     14794     14787     14790     14793     14795
     14787     14790     14793     14796     14788     14787     14790     14791
     14788     14787     14790     14792     14788     14787     14790     14793
     14789     14787     14790     14791     14789     14787     14790     14792
     14789     14787     14790     14793     14790     14793     14796     14797
     14790     14793     14796     14798     14790     14793     14796     14799
     14791     14790     14793     14794     14791     14790     14793     14795
     14791     14790     14793     14796     14792     14790     14793     14794
     14792     14790     14793     14795     14792     14790     14793     14796
     14793     14796     14799     14800     14793     14796     14799     14801
     14793     14796     14799     14802     14794     14793     14796     14797
     14794     14793     14796     14798     14794     14793     14796     14799
     14795     14793     14796     14797     14795     14793     14796     14798
     14795     14793     14796     14799     14796     14799     14802     14803
     14796     14799     14802     14804     14796     14799     14802     14805
     14797     14796     14799     14800     14797     14796     14799     14801
     14797     14796     14799     14802     14798     14796     14799     14800
     14798     14796     14799     14801     14798     14796     14799     14802
     14799     14802     14805     14806     14799     14802     14805     14807
     14799     14802     14805     14808     14800     14799     14802     14803
     14800     14799     14802     14804     14800     14799     14802     14805
     14801     14799     14802     14803     14801     14799     14802     14804
     14801     14799     14802     14805     14802     14805     14808     14809
     14802     14805     14808     14810     14802     14805     14808     14811
     14803     14802     14805     14806     14803     14802     14805     14807
     14803     14802     14805     14808     14804     14802     14805     14806
     14804     14802     14805     14807     14804     14802     14805     14808
     14806     14805     14808     14809     14806     14805     14808     14810
     14806     14805     14808     14811     14807     14805     14808     14809
     14807     14805     14808     14810     14807     14805     14808     14811
     14812     14825     14828     14829     14812     14825     14828     14830
     14812     14825     14828     14835     14813     14812     14817     14818
     14813     14812     14817     14819     14813     14812     14817     14820
     14813     14812     14821     14822     14813     14812     14821     14823
     14813     14812     14821     14824     14813     14812     14825     14826
     14813     14812     14825     14827     14813     14812     14825     14828
     14814     14813     14812     14817     14814     14813     14812     14821
     14814     14813     14812     14825     14815     14813     14812     14817
     14815     14813     14812     14821     14815     14813     14812     14825
     14816     14813     14812     14817     14816     14813     14812     14821
     14816     14813     14812     14825     14817     14812     14821     14822
     14817     14812     14821     14823     14817     14812     14821     14824
     14817     14812     14825     14826     14817     14812     14825     14827
     14817     14812     14825     14828     14818     14817     14812     14821
     14818     14817     14812     14825     14819     14817     14812     14821
     14819     14817     14812     14825     14820     14817     14812     14821
     14820     14817     14812     14825     14821     14812     14825     14826
     14821     14812     14825     14827     14821     14812     14825     14828
     14822     14821     14812     14825     14823     14821     14812     14825
     14824     14821     14812     14825     14825     14828     14835     14831
     14826     14825     14828     14829     14826     14825     14828     14830
     14826     14825     14828     14835     14827     14825     14828     14829
     14827     14825     14828     14830     14827     14825     14828     14835
     14828     14835     14831     14832     14828     14835     14831     14833
     14828     14835     14831     14834     14829     14828     14835     14831
     14830     14828     14835     14831     14831     14834     14836     14837
     14831     14834     14836     14838     14831     14834     14836     14841
     14832     14831     14834     14836     14833     14831     14834     14836
     14834     14836     14841     14839     14834     14836     14841     14842
     14834     14836     14841     14843     14835     14831     14834     14836
     14836     14841     14839     14840     14836     14841     14839     14891
     14836     14841     14843     14844     14836     14841     14843     14845
     14836     14841     14843     14847     14837     14836     14841     14839
     14837     14836     14841     14842     14837     14836     14841     14843
     14838     14836     14841     14839     14838     14836     14841     14842
     14838     14836     14841     14843     14839     14841     14843     14844
     14839     14841     14843     14845     14839     14841     14843     14847
     14839     14891     14893     14894     14839     14891     14893     14895
     14839     14891     14893     14896     14840     14839     14841     14842
     14840     14839     14841     14843     14840     14839     14891     14892
     14840     14839     14891     14893     14841     14839     14891     14892
     14841     14839     14891     14893     14841     14843     14845     14846
     14841     14843     14847     14848     14841     14843     14847     14849
     14842     14841     14839     14891     14842     14841     14843     14844
     14842     14841     14843     14845     14842     14841     14843     14847
     14843     14841     14839     14891     14843     14847     14849     14850
     14843     14847     14849     14851     14844     14843     14845     14846
     14844     14843     14847     14848     14844     14843     14847     14849
     14845     14843     14847     14848     14845     14843     14847     14849
     14846     14845     14843     14847     14847     14849     14851     14852
     14847     14849     14851     14853     14847     14849     14851     14854
     14848     14847     14849     14850     14848     14847     14849     14851
     14849     14851     14854     14855     14849     14851     14854     14856
     14849     14851     14854     14857     14850     14849     14851     14852
     14850     14849     14851     14853     14850     14849     14851     14854
     14851     14854     14857     14858     14851     14854     14857     14859
     14851     14854     14857     14860     14852     14851     14854     14855
     14852     14851     14854     14856     14852     14851     14854     14857
     14853     14851     14854     14855     14853     14851     14854     14856
     14853     14851     14854     14857     14854     14857     14860     14861
     14854     14857     14860     14862     14854     14857     14860     14863
     14855     14854     14857     14858     14855     14854     14857     14859
     14855     14854     14857     14860     14856     14854     14857     14858
     14856     14854     14857     14859     14856     14854     14857     14860
     14857     14860     14863     14864     14857     14860     14863     14865
     14857     14860     14863     14866     14858     14857     14860     14861
     14858     14857     14860     14862     14858     14857     14860     14863
     14859     14857     14860     14861     14859     14857     14860     14862
     14859     14857     14860     14863     14860     14863     14866     14867
     14860     14863     14866     14868     14860     14863     14866     14869
     14861     14860     14863     14864     14861     14860     14863     14865
     14861     14860     14863     14866     14862     14860     14863     14864
     14862     14860     14863     14865     14862     14860     14863     14866
     14863     14866     14869     14870     14863     14866     14869     14871
     14863     14866     14869     14872     14864     14863     14866     14867
     14864     14863     14866     14868     14864     14863     14866     14869
     14865     14863     14866     14867     14865     14863     14866     14868
     14865     14863     14866     14869     14866     14869     14872     14873
     14866     14869     14872     14874     14866     14869     14872     14875
     14867     14866     14869     14870     14867     14866     14869     14871
     14867     14866     14869     14872     14868     14866     14869     14870
     14868     14866     14869     14871     14868     14866     14869     14872
     14869     14872     14875     14876     14869     14872     14875     14877
     14869     14872     14875     14878     14870     14869     14872     14873
     14870     14869     14872     14874     14870     14869     14872     14875
     14871     14869     14872     14873     14871     14869     14872     14874
     14871     14869     14872     14875     14872     14875     14878     14879
     14872     14875     14878     14880     14872     14875     14878     14881
     14873     14872     14875     14876     14873     14872     14875     14877
     14873     14872     14875     14878     14874     14872     14875     14876
     14874     14872     14875     14877     14874     14872     14875     14878
     14875     14878     14881     14882     14875     14878     14881     14883
     14875     14878     14881     14884     14876     14875     14878     14879
     14876     14875     14878     14880     14876     14875     14878     14881
     14877     14875     14878     14879     14877     14875     14878     14880
     14877     14875     14878     14881     14878     14881     14884     14885
     14878     14881     14884     14886     14878     14881     14884     14887
     14879     14878     14881     14882     14879     14878     14881     14883
     14879     14878     14881     14884     14880     14878     14881     14882
     14880     14878     14881     14883     14880     14878     14881     14884
     14881     14884     14887     14888     14881     14884     14887     14889
     14881     14884     14887     14890     14882     14881     14884     14885
     14882     14881     14884     14886     14882     14881     14884     14887
     14883     14881     14884     14885     14883     14881     14884     14886
     14883     14881     14884     14887     14885     14884     14887     14888
     14885     14884     14887     14889     14885     14884     14887     14890
     14886     14884     14887     14888     14886     14884     14887     14889
     14886     14884     14887     14890     14891     14893     14896     14897
     14891     14893     14896     14898     14891     14893     14896     14899
     14892     14891     14893     14894     14892     14891     14893     14895
     14892     14891     14893     14896     14893     14896     14899     14900
     14893     14896     14899     14901     14893     14896     14899     14902
     14894     14893     14896     14897     14894     14893     14896     14898
     14894     14893     14896     14899     14895     14893     14896     14897
     14895     14893     14896     14898     14895     14893     14896     14899
     14896     14899     14902     14903     14896     14899     14902     14904
     14896     14899     14902     14905     14897     14896     14899     14900
     14897     14896     14899     14901     14897     14896     14899     14902
     14898     14896     14899     14900     14898     14896     14899     14901
     14898     14896     14899     14902     14899     14902     14905     14906
     14899     14902     14905     14907     14899     14902     14905     14908
     14900     14899     14902     14903     14900     14899     14902     14904
     14900     14899     14902     14905     14901     14899     14902     14903
     14901     14899     14902     14904     14901     14899     14902     14905
     14902     14905     14908     14909     14902     14905     14908     14910
     14902     14905     14908     14911     14903     14902     14905     14906
     14903     14902     14905     14907     14903     14902     14905     14908
     14904     14902     14905     14906     14904     14902     14905     14907
     14904     14902     14905     14908     14905     14908     14911     14912
     14905     14908     14911     14913     14905     14908     14911     14914
     14906     14905     14908     14909     14906     14905     14908     14910
     14906     14905     14908     14911     14907     14905     14908     14909
     14907     14905     14908     14910     14907     14905     14908     14911
     14908     14911     14914     14915     14908     14911     14914     14916
     14909     14908     14911     14912     14909     14908     14911     14913
     14909     14908     14911     14914     14910     14908     14911     14912
     14910     14908     14911     14913     14910     14908     14911     14914
     14911     14914     14916     14917     14911     14914     14916     14918
     14912     14911     14914     14915     14912     14911     14914     14916
     14913     14911     14914     14915     14913     14911     14914     14916
     14914     14916     14918     14919     14914     14916     14918     14920
     14914     14916     14918     14921     14915     14914     14916     14917
     14915     14914     14916     14918     14916     14918     14921     14922
     14916     14918     14921     14923     14916     14918     14921     14924
     14917     14916     14918     14919     14917     14916     14918     14920
     14917     14916     14918     14921     14918     14921     14924     14925
     14918     14921     14924     14926     14918     14921     14924     14927
     14919     14918     14921     14922     14919     14918     14921     14923
     14919     14918     14921     14924     14920     14918     14921     14922
     14920     14918     14921     14923     14920     14918     14921     14924
     14921     14924     14927     14928     14921     14924     14927     14929
     14921     14924     14927     14930     14922     14921     14924     14925
     14922     14921     14924     14926     14922     14921     14924     14927
     14923     14921     14924     14925     14923     14921     14924     14926
     14923     14921     14924     14927     14924     14927     14930     14931
     14924     14927     14930     14932     14924     14927     14930     14933
     14925     14924     14927     14928     14925     14924     14927     14929
     14925     14924     14927     14930     14926     14924     14927     14928
     14926     14924     14927     14929     14926     14924     14927     14930
     14927     14930     14933     14934     14927     14930     14933     14935
     14927     14930     14933     14936     14928     14927     14930     14931
     14928     14927     14930     14932     14928     14927     14930     14933
     14929     14927     14930     14931     14929     14927     14930     14932
     14929     14927     14930     14933     14930     14933     14936     14937
     14930     14933     14936     14938     14930     14933     14936     14939
     14931     14930     14933     14934     14931     14930     14933     14935
     14931     14930     14933     14936     14932     14930     14933     14934
     14932     14930     14933     14935     14932     14930     14933     14936
     14933     14936     14939     14940     14933     14936     14939     14941
     14933     14936     14939     14942     14934     14933     14936     14937
     14934     14933     14936     14938     14934     14933     14936     14939
     14935     14933     14936     14937     14935     14933     14936     14938
     14935     14933     14936     14939     14937     14936     14939     14940
     14937     14936     14939     14941     14937     14936     14939     14942
     14938     14936     14939     14940     14938     14936     14939     14941
     14938     14936     14939     14942     14943     14944     14959     14960
     14943     14944     14959     14961     14943     14944     14959     14965
     14944     14943     14947     14948     14944     14943     14947     14949
     14944     14943     14947     14950     14944     14943     14951     14952
     14944     14943     14951     14953     14944     14943     14951     14954
     14944     14943     14955     14956     14944     14943     14955     14957
     14944     14943     14955     14958     14944     14959     14965     14962
     14945     14944     14943     14947     14945     14944     14943     14951
     14945     14944     14943     14955     14945     14944     14959     14960
     14945     14944     14959     14961     14945     14944     14959     14965
     14946     14944     14943     14947     14946     14944     14943     14951
     14946     14944     14943     14955     14946     14944     14959     14960
     14946     14944     14959     14961     14946     14944     14959     14965
     14947     14943     14944     14959     14947     14943     14951     14952
     14947     14943     14951     14953     14947     14943     14951     14954
     14947     14943     14955     14956     14947     14943     14955     14957
     14947     14943     14955     14958     14948     14947     14943     14951
     14948     14947     14943     14955     14949     14947     14943     14951
     14949     14947     14943     14955     14950     14947     14943     14951
     14950     14947     14943     14955     14951     14943     14944     14959
     14951     14943     14955     14956     14951     14943     14955     14957
     14951     14943     14955     14958     14952     14951     14943     14955
     14953     14951     14943     14955     14954     14951     14943     14955
     14955     14943     14944     14959     14959     14965     14962     14963
     14959     14965     14962     14964     14959     14965     14962     14966
     14960     14959     14965     14962     14961     14959     14965     14962
     14962     14966     14967     14968     14962     14966     14967     14969
     14962     14966     14967     14970     14963     14962     14966     14967
     14964     14962     14966     14967     14965     14962     14966     14967
     14966     14967     14970     14971     14966     14967     14970     14972
     14966     14967     14970     14978     14967     14970     14972     14973
     14967     14970     14978     14979     14967     14970     14978     14980
     14967     14970     14978     14981     14968     14967     14970     14971
     14968     14967     14970     14972     14968     14967     14970     14978
     14969     14967     14970     14971     14969     14967     14970     14972
     14969     14967     14970     14978     14970     14972     14973     14974
     14970     14972     14973     14975     14970     14978     14981     14982
     14971     14970     14972     14973     14971     14970     14978     14979
     14971     14970     14978     14980     14971     14970     14978     14981
     14972     14970     14978     14979     14972     14970     14978     14980
     14972     14970     14978     14981     14972     14973     14975     14976
     14972     14973     14975     14977     14972     14973     14975     14987
     14973     14972     14970     14978     14973     14975     14987     14988
     14973     14975     14987     14989     14973     14975     14987     14990
     14974     14973     14975     14976     14974     14973     14975     14977
     14974     14973     14975     14987     14975     14987     14990     14991
     14975     14987     14990     14992     14975     14987     14990     14993
     14976     14975     14987     14988     14976     14975     14987     14989
     14976     14975     14987     14990     14977     14975     14987     14988
     14977     14975     14987     14989     14977     14975     14987     14990
     14978     14981     14982     14983     14978     14981     14982     14984
     14979     14978     14981     14982     14980     14978     14981     14982
     14981     14982     14984     14985     14981     14982     14984     14986
     14981     14982     14984     15034     14982     14984     15034     15035
     14982     14984     15034     15036     14982     14984     15034     15037
     14983     14982     14984     14985     14983     14982     14984     14986
     14983     14982     14984     15034     14984     15034     15037     15038
     14984     15034     15037     15039     14984     15034     15037     15040
     14985     14984     15034     15035     14985     14984     15034     15036
     14985     14984     15034     15037     14986     14984     15034     15035
     14986     14984     15034     15036     14986     14984     15034     15037
     14987     14990     14993     14994     14987     14990     14993     14995
     14987     14990     14993     14996     14988     14987     14990     14991
     14988     14987     14990     14992     14988     14987     14990     14993
     14989     14987     14990     14991     14989     14987     14990     14992
     14989     14987     14990     14993     14990     14993     14996     14997
     14990     14993     14996     14998     14990     14993     14996     14999
     14991     14990     14993     14994     14991     14990     14993     14995
     14991     14990     14993     14996     14992     14990     14993     14994
     14992     14990     14993     14995     14992     14990     14993     14996
     14993     14996     14999     15000     14993     14996     14999     15001
     14993     14996     14999     15002     14994     14993     14996     14997
     14994     14993     14996     14998     14994     14993     14996     14999
     14995     14993     14996     14997     14995     14993     14996     14998
     14995     14993     14996     14999     14996     14999     15002     15003
     14996     14999     15002     15004     14996     14999     15002     15005
     14997     14996     14999     15000     14997     14996     14999     15001
     14997     14996     14999     15002     14998     14996     14999     15000
     14998     14996     14999     15001     14998     14996     14999     15002
     14999     15002     15005     15006     14999     15002     15005     15007
     15000     14999     15002     15003     15000     14999     15002     15004
     15000     14999     15002     15005     15001     14999     15002     15003
     15001     14999     15002     15004     15001     14999     15002     15005
     15002     15005     15007     15008     15002     15005     15007     15009
     15003     15002     15005     15006     15003     15002     15005     15007
     15004     15002     15005     15006     15004     15002     15005     15007
     15005     15007     15009     15010     15005     15007     15009     15011
     15005     15007     15009     15012     15006     15005     15007     15008
     15006     15005     15007     15009     15007     15009     15012     15013
     15007     15009     15012     15014     15007     15009     15012     15015
     15008     15007     15009     15010     15008     15007     15009     15011
     15008     15007     15009     15012     15009     15012     15015     15016
     15009     15012     15015     15017     15009     15012     15015     15018
     15010     15009     15012     15013     15010     15009     15012     15014
     15010     15009     15012     15015     15011     15009     15012     15013
     15011     15009     15012     15014     15011     15009     15012     15015
     15012     15015     15018     15019     15012     15015     15018     15020
     15012     15015     15018     15021     15013     15012     15015     15016
     15013     15012     15015     15017     15013     15012     15015     15018
     15014     15012     15015     15016     15014     15012     15015     15017
     15014     15012     15015     15018     15015     15018     15021     15022
     15015     15018     15021     15023     15015     15018     15021     15024
     15016     15015     15018     15019     15016     15015     15018     15020
     15016     15015     15018     15021     15017     15015     15018     15019
     15017     15015     15018     15020     15017     15015     15018     15021
     15018     15021     15024     15025     15018     15021     15024     15026
     15018     15021     15024     15027     15019     15018     15021     15022
     15019     15018     15021     15023     15019     15018     15021     15024
     15020     15018     15021     15022     15020     15018     15021     15023
     15020     15018     15021     15024     15021     15024     15027     15028
     15021     15024     15027     15029     15021     15024     15027     15030
     15022     15021     15024     15025     15022     15021     15024     15026
     15022     15021     15024     15027     15023     15021     15024     15025
     15023     15021     15024     15026     15023     15021     15024     15027
     15024     15027     15030     15031     15024     15027     15030     15032
     15024     15027     15030     15033     15025     15024     15027     15028
     15025     15024     15027     15029     15025     15024     15027     15030
     15026     15024     15027     15028     15026     15024     15027     15029
     15026     15024     15027     15030     15028     15027     15030     15031
     15028     15027     15030     15032     15028     15027     15030     15033
     15029     15027     15030     15031     15029     15027     15030     15032
     15029     15027     15030     15033     15034     15037     15040     15041
     15034     15037     15040     15042     15034     15037     15040     15043
     15035     15034     15037     15038     15035     15034     15037     15039
     15035     15034     15037     15040     15036     15034     15037     15038
     15036     15034     15037     15039     15036     15034     15037     15040
     15037     15040     15043     15044     15037     15040     15043     15045
     15037     15040     15043     15046     15038     15037     15040     15041
     15038     15037     15040     15042     15038     15037     15040     15043
     15039     15037     15040     15041     15039     15037     15040     15042
     15039     15037     15040     15043     15040     15043     15046     15047
     15040     15043     15046     15048     15040     15043     15046     15049
     15041     15040     15043     15044     15041     15040     15043     15045
     15041     15040     15043     15046     15042     15040     15043     15044
     15042     15040     15043     15045     15042     15040     15043     15046
     15043     15046     15049     15050     15043     15046     15049     15051
     15043     15046     15049     15052     15044     15043     15046     15047
     15044     15043     15046     15048     15044     15043     15046     15049
     15045     15043     15046     15047     15045     15043     15046     15048
     15045     15043     15046     15049     15046     15049     15052     15053
     15046     15049     15052     15054     15046     15049     15052     15055
     15047     15046     15049     15050     15047     15046     15049     15051
     15047     15046     15049     15052     15048     15046     15049     15050
     15048     15046     15049     15051     15048     15046     15049     15052
     15049     15052     15055     15056     15049     15052     15055     15057
     15049     15052     15055     15058     15050     15049     15052     15053
     15050     15049     15052     15054     15050     15049     15052     15055
     15051     15049     15052     15053     15051     15049     15052     15054
     15051     15049     15052     15055     15052     15055     15058     15059
     15052     15055     15058     15060     15052     15055     15058     15061
     15053     15052     15055     15056     15053     15052     15055     15057
     15053     15052     15055     15058     15054     15052     15055     15056
     15054     15052     15055     15057     15054     15052     15055     15058
     15055     15058     15061     15062     15055     15058     15061     15063
     15055     15058     15061     15064     15056     15055     15058     15059
     15056     15055     15058     15060     15056     15055     15058     15061
     15057     15055     15058     15059     15057     15055     15058     15060
     15057     15055     15058     15061     15058     15061     15064     15065
     15058     15061     15064     15066     15058     15061     15064     15067
     15059     15058     15061     15062     15059     15058     15061     15063
     15059     15058     15061     15064     15060     15058     15061     15062
     15060     15058     15061     15063     15060     15058     15061     15064
     15061     15064     15067     15068     15061     15064     15067     15069
     15061     15064     15067     15070     15062     15061     15064     15065
     15062     15061     15064     15066     15062     15061     15064     15067
     15063     15061     15064     15065     15063     15061     15064     15066
     15063     15061     15064     15067     15064     15067     15070     15071
     15064     15067     15070     15072     15064     15067     15070     15073
     15065     15064     15067     15068     15065     15064     15067     15069
     15065     15064     15067     15070     15066     15064     15067     15068
     15066     15064     15067     15069     15066     15064     15067     15070
     15067     15070     15073     15074     15067     15070     15073     15075
     15067     15070     15073     15076     15068     15067     15070     15071
     15068     15067     15070     15072     15068     15067     15070     15073
     15069     15067     15070     15071     15069     15067     15070     15072
     15069     15067     15070     15073     15071     15070     15073     15074
     15071     15070     15073     15075     15071     15070     15073     15076
     15072     15070     15073     15074     15072     15070     15073     15075
     15072     15070     15073     15076     15077     15081     15083     15084
     15077     15081     15083     15085     15077     15081     15086     15087
     15077     15081     15086     15088     15077     15081     15086     15092
     15078     15077     15081     15082     15078     15077     15081     15083
     15078     15077     15081     15086     15079     15077     15081     15082
     15079     15077     15081     15083     15079     15077     15081     15086
     15080     15077     15081     15082     15080     15077     15081     15083
     15080     15077     15081     15086     15081     15086     15092     15089
     15082     15081     15083     15084     15082     15081     15083     15085
     15082     15081     15086     15087     15082     15081     15086     15088
     15082     15081     15086     15092     15083     15081     15086     15087
     15083     15081     15086     15088     15083     15081     15086     15092
     15084     15083     15081     15086     15085     15083     15081     15086
     15086     15092     15089     15090     15086     15092     15089     15091
     15086     15092     15089     15093     15087     15086     15092     15089
     15088     15086     15092     15089     15089     15093     15094     15095
     15089     15093     15094     15096     15089     15093     15094     15097
     15090     15089     15093     15094     15091     15089     15093     15094
     15092     15089     15093     15094     15093     15094     15097     15098
     15093     15094     15097     15099     15093     15094     15097     15105
     15094     15097     15099     15100     15094     15097     15105     15106
     15094     15097     15105     15107     15094     15097     15105     15108
     15095     15094     15097     15098     15095     15094     15097     15099
     15095     15094     15097     15105     15096     15094     15097     15098
     15096     15094     15097     15099     15096     15094     15097     15105
     15097     15099     15100     15101     15097     15099     15100     15102
     15097     15105     15108     15109     15098     15097     15099     15100
     15098     15097     15105     15106     15098     15097     15105     15107
     15098     15097     15105     15108     15099     15097     15105     15106
     15099     15097     15105     15107     15099     15097     15105     15108
     15099     15100     15102     15103     15099     15100     15102     15104
     15099     15100     15102     15114     15100     15099     15097     15105
     15100     15102     15114     15115     15100     15102     15114     15116
     15100     15102     15114     15117     15101     15100     15102     15103
     15101     15100     15102     15104     15101     15100     15102     15114
     15102     15114     15117     15118     15102     15114     15117     15119
     15102     15114     15117     15120     15103     15102     15114     15115
     15103     15102     15114     15116     15103     15102     15114     15117
     15104     15102     15114     15115     15104     15102     15114     15116
     15104     15102     15114     15117     15105     15108     15109     15110
     15105     15108     15109     15111     15106     15105     15108     15109
     15107     15105     15108     15109     15108     15109     15111     15112
     15108     15109     15111     15113     15108     15109     15111     15161
     15109     15111     15161     15162     15109     15111     15161     15163
     15109     15111     15161     15164     15110     15109     15111     15112
     15110     15109     15111     15113     15110     15109     15111     15161
     15111     15161     15164     15165     15111     15161     15164     15166
     15111     15161     15164     15167     15112     15111     15161     15162
     15112     15111     15161     15163     15112     15111     15161     15164
     15113     15111     15161     15162     15113     15111     15161     15163
     15113     15111     15161     15164     15114     15117     15120     15121
     15114     15117     15120     15122     15115     15114     15117     15118
     15115     15114     15117     15119     15115     15114     15117     15120
     15116     15114     15117     15118     15116     15114     15117     15119
     15116     15114     15117     15120     15117     15120     15122     15123
     15117     15120     15122     15124     15118     15117     15120     15121
     15118     15117     15120     15122     15119     15117     15120     15121
     15119     15117     15120     15122     15120     15122     15124     15125
     15120     15122     15124     15126     15120     15122     15124     15127
     15121     15120     15122     15123     15121     15120     15122     15124
     15122     15124     15127     15128     15122     15124     15127     15129
     15123     15122     15124     15125     15123     15122     15124     15126
     15123     15122     15124     15127     15124     15127     15129     15130
     15124     15127     15129     15131     15125     15124     15127     15128
     15125     15124     15127     15129     15126     15124     15127     15128
     15126     15124     15127     15129     15127     15129     15131     15132
     15127     15129     15131     15133     15127     15129     15131     15134
     15128     15127     15129     15130     15128     15127     15129     15131
     15129     15131     15134     15135     15129     15131     15134     15136
     15130     15129     15131     15132     15130     15129     15131     15133
     15130     15129     15131     15134     15131     15134     15136     15137
     15131     15134     15136     15138     15132     15131     15134     15135
     15132     15131     15134     15136     15133     15131     15134     15135
     15133     15131     15134     15136     15134     15136     15138     15139
     15134     15136     15138     15140     15134     15136     15138     15141
     15135     15134     15136     15137     15135     15134     15136     15138
     15136     15138     15141     15142     15136     15138     15141     15143
     15137     15136     15138     15139     15137     15136     15138     15140
     15137     15136     15138     15141     15138     15141     15143     15144
     15138     15141     15143     15145     15139     15138     15141     15142
     15139     15138     15141     15143     15140     15138     15141     15142
     15140     15138     15141     15143     15141     15143     15145     15146
     15141     15143     15145     15147     15141     15143     15145     15148
     15142     15141     15143     15144     15142     15141     15143     15145
     15143     15145     15148     15149     15143     15145     15148     15150
     15143     15145     15148     15151     15144     15143     15145     15146
     15144     15143     15145     15147     15144     15143     15145     15148
     15145     15148     15151     15152     15145     15148     15151     15153
     15145     15148     15151     15154     15146     15145     15148     15149
     15146     15145     15148     15150     15146     15145     15148     15151
     15147     15145     15148     15149     15147     15145     15148     15150
     15147     15145     15148     15151     15148     15151     15154     15155
     15148     15151     15154     15156     15148     15151     15154     15157
     15149     15148     15151     15152     15149     15148     15151     15153
     15149     15148     15151     15154     15150     15148     15151     15152
     15150     15148     15151     15153     15150     15148     15151     15154
     15151     15154     15157     15158     15151     15154     15157     15159
     15151     15154     15157     15160     15152     15151     15154     15155
     15152     15151     15154     15156     15152     15151     15154     15157
     15153     15151     15154     15155     15153     15151     15154     15156
     15153     15151     15154     15157     15155     15154     15157     15158
     15155     15154     15157     15159     15155     15154     15157     15160
     15156     15154     15157     15158     15156     15154     15157     15159
     15156     15154     15157     15160     15161     15164     15167     15168
     15161     15164     15167     15169     15161     15164     15167     15170
     15162     15161     15164     15165     15162     15161     15164     15166
     15162     15161     15164     15167     15163     15161     15164     15165
     15163     15161     15164     15166     15163     15161     15164     15167
     15164     15167     15170     15171     15164     15167     15170     15172
     15164     15167     15170     15173     15165     15164     15167     15168
     15165     15164     15167     15169     15165     15164     15167     15170
     15166     15164     15167     15168     15166     15164     15167     15169
     15166     15164     15167     15170     15167     15170     15173     15174
     15167     15170     15173     15175     15167     15170     15173     15176
     15168     15167     15170     15171     15168     15167     15170     15172
     15168     15167     15170     15173     15169     15167     15170     15171
     15169     15167     15170     15172     15169     15167     15170     15173
     15170     15173     15176     15177     15170     15173     15176     15178
     15170     15173     15176     15179     15171     15170     15173     15174
     15171     15170     15173     15175     15171     15170     15173     15176
     15172     15170     15173     15174     15172     15170     15173     15175
     15172     15170     15173     15176     15173     15176     15179     15180
     15173     15176     15179     15181     15173     15176     15179     15182
     15174     15173     15176     15177     15174     15173     15176     15178
     15174     15173     15176     15179     15175     15173     15176     15177
     15175     15173     15176     15178     15175     15173     15176     15179
     15176     15179     15182     15183     15176     15179     15182     15184
     15176     15179     15182     15185     15177     15176     15179     15180
     15177     15176     15179     15181     15177     15176     15179     15182
     15178     15176     15179     15180     15178     15176     15179     15181
     15178     15176     15179     15182     15179     15182     15185     15186
     15179     15182     15185     15187     15179     15182     15185     15188
     15180     15179     15182     15183     15180     15179     15182     15184
     15180     15179     15182     15185     15181     15179     15182     15183
     15181     15179     15182     15184     15181     15179     15182     15185
     15182     15185     15188     15189     15182     15185     15188     15190
     15182     15185     15188     15191     15183     15182     15185     15186
     15183     15182     15185     15187     15183     15182     15185     15188
     15184     15182     15185     15186     15184     15182     15185     15187
     15184     15182     15185     15188     15185     15188     15191     15192
     15185     15188     15191     15193     15185     15188     15191     15194
     15186     15185     15188     15189     15186     15185     15188     15190
     15186     15185     15188     15191     15187     15185     15188     15189
     15187     15185     15188     15190     15187     15185     15188     15191
     15188     15191     15194     15195     15188     15191     15194     15196
     15188     15191     15194     15197     15189     15188     15191     15192
     15189     15188     15191     15193     15189     15188     15191     15194
     15190     15188     15191     15192     15190     15188     15191     15193
     15190     15188     15191     15194     15191     15194     15197     15198
     15191     15194     15197     15199     15191     15194     15197     15200
     15192     15191     15194     15195     15192     15191     15194     15196
     15192     15191     15194     15197     15193     15191     15194     15195
     15193     15191     15194     15196     15193     15191     15194     15197
     15194     15197     15200     15201     15194     15197     15200     15202
     15194     15197     15200     15203     15195     15194     15197     15198
     15195     15194     15197     15199     15195     15194     15197     15200
     15196     15194     15197     15198     15196     15194     15197     15199
     15196     15194     15197     15200     15197     15200     15203     15204
     15197     15200     15203     15205     15197     15200     15203     15206
     15198     15197     15200     15201     15198     15197     15200     15202
     15198     15197     15200     15203     15199     15197     15200     15201
     15199     15197     15200     15202     15199     15197     15200     15203
     15200     15203     15206     15207     15200     15203     15206     15208
     15200     15203     15206     15209     15201     15200     15203     15204
     15201     15200     15203     15205     15201     15200     15203     15206
     15202     15200     15203     15204     15202     15200     15203     15205
     15202     15200     15203     15206     15204     15203     15206     15207
     15204     15203     15206     15208     15204     15203     15206     15209
     15205     15203     15206     15207     15205     15203     15206     15208
     15205     15203     15206     15209     15210     15214     15217     15218
     15210     15214     15217     15248     15210     15256     15253     15248
     15210     15256     15253     15254     15210     15256     15253     15255
     15211     15210     15212     15213     15211     15210     15214     15215
     15211     15210     15214     15216     15211     15210     15214     15217
     15211     15210     15256     15253     15211     15210     15256     15257
     15211     15210     15256     15258     15212     15210     15214     15215
     15212     15210     15214     15216     15212     15210     15214     15217
     15212     15210     15256     15253     15212     15210     15256     15257
     15212     15210     15256     15258     15213     15212     15210     15214
     15213     15212     15210     15256     15214     15210     15256     15253
     15214     15210     15256     15257     15214     15210     15256     15258
     15214     15217     15218     15219     15214     15217     15218     15220
     15214     15217     15248     15246     15214     15217     15248     15249
     15214     15217     15248     15253     15215     15214     15210     15256
     15215     15214     15217     15218     15215     15214     15217     15248
     15216     15214     15210     15256     15216     15214     15217     15218
     15216     15214     15217     15248     15217     15214     15210     15256
     15217     15218     15220     15221     15217     15218     15220     15222
     15217     15218     15220     15223     15217     15248     15246     15223
     15217     15248     15246     15243     15217     15248     15246     15247
     15217     15248     15249     15250     15217     15248     15249     15251
     15217     15248     15249     15252     15217     15248     15253     15254
     15217     15248     15253     15255     15217     15248     15253     15256
     15218     15217     15248     15246     15218     15217     15248     15249
     15218     15217     15248     15253     15218     15220     15223     15224
     15218     15220     15223     15225     15218     15220     15223     15246
     15219     15218     15217     15248     15219     15218     15220     15221
     15219     15218     15220     15222     15219     15218     15220     15223
     15220     15218     15217     15248     15220     15223     15225     15226
     15220     15223     15225     15227     15220     15223     15225     15235
     15220     15223     15246     15243     15220     15223     15246     15247
     15220     15223     15246     15248     15221     15220     15223     15224
     15221     15220     15223     15225     15221     15220     15223     15246
     15222     15220     15223     15224     15222     15220     15223     15225
     15222     15220     15223     15246     15223     15225     15227     15228
     15223     15225     15227     15229     15223     15225     15227     15230
     15223     15225     15235     15233     15223     15225     15235     15236
     15223     15225     15235     15240     15223     15246     15243     15240
     15223     15246     15243     15244     15223     15246     15243     15245
     15223     15246     15248     15249     15223     15246     15248     15253
     15224     15223     15225     15226     15224     15223     15225     15227
     15224     15223     15225     15235     15224     15223     15246     15243
     15224     15223     15246     15247     15224     15223     15246     15248
     15225     15223     15246     15243     15225     15223     15246     15247
     15225     15223     15246     15248     15225     15227     15230     15231
     15225     15227     15230     15232     15225     15227     15230     15233
     15225     15235     15233     15230     15225     15235     15233     15234
     15225     15235     15233     15259     15225     15235     15236     15237
     15225     15235     15236     15238     15225     15235     15236     15239
     15225     15235     15240     15241     15225     15235     15240     15242
     15225     15235     15240     15243     15226     15225     15223     15246
     15226     15225     15227     15228     15226     15225     15227     15229
     15226     15225     15227     15230     15226     15225     15235     15233
     15226     15225     15235     15236     15226     15225     15235     15240
     15227     15225     15223     15246     15227     15225     15235     15233
     15227     15225     15235     15236     15227     15225     15235     15240
     15227     15230     15233     15234     15227     15230     15233     15235
     15227     15230     15233     15259     15228     15227     15225     15235
     15228     15227     15230     15231     15228     15227     15230     15232
     15228     15227     15230     15233     15229     15227     15225     15235
     15229     15227     15230     15231     15229     15227     15230     15232
     15229     15227     15230     15233     15230     15227     15225     15235
     15230     15233     15235     15236     15230     15233     15235     15240
     15230     15233     15259     15260     15230     15233     15259     15261
     15230     15233     15259     15265     15231     15230     15233     15234
     15231     15230     15233     15235     15231     15230     15233     15259
     15232     15230     15233     15234     15232     15230     15233     15235
     15232     15230     15233     15259     15233     15235     15236     15237
     15233     15235     15236     15238     15233     15235     15236     15239
     15233     15235     15240     15241     15233     15235     15240     15242
     15233     15235     15240     15243     15233     15259     15261     15262
     15233     15259     15261     15263     15233     15259     15261     15264
     15233     15259     15265     15266     15233     15259     15265     15267
     15233     15259     15265     15268     15234     15233     15235     15236
     15234     15233     15235     15240     15234     15233     15259     15260
     15234     15233     15259     15261     15234     15233     15259     15265
     15235     15225     15223     15246     15235     15233     15259     15260
     15235     15233     15259     15261     15235     15233     15259     15265
     15235     15240     15243     15244     15235     15240     15243     15245
     15235     15240     15243     15246     15236     15235     15233     15259
     15236     15235     15240     15241     15236     15235     15240     15242
     15236     15235     15240     15243     15237     15236     15235     15240
     15238     15236     15235     15240     15239     15236     15235     15240
     15240     15235     15233     15259     15240     15243     15246     15247
     15240     15243     15246     15248     15241     15240     15243     15244
     15241     15240     15243     15245     15241     15240     15243     15246
     15242     15240     15243     15244     15242     15240     15243     15245
     15242     15240     15243     15246     15243     15246     15248     15249
     15243     15246     15248     15253     15244     15243     15246     15247
     15244     15243     15246     15248     15245     15243     15246     15247
     15245     15243     15246     15248     15246     15248     15249     15250
     15246     15248     15249     15251     15246     15248     15249     15252
     15246     15248     15253     15254     15246     15248     15253     15255
     15246     15248     15253     15256     15247     15246     15248     15249
     15247     15246     15248     15253     15248     15253     15256     15257
     15248     15253     15256     15258     15249     15248     15253     15254
     15249     15248     15253     15255     15249     15248     15253     15256
     15250     15249     15248     15253     15251     15249     15248     15253
     15252     15249     15248     15253     15254     15253     15256     15257
     15254     15253     15256     15258     15255     15253     15256     15257
     15255     15253     15256     15258     15259     15265     15268     15269
     15259     15265     15268     15270     15259     15265     15268     15271
     15260     15259     15261     15262     15260     15259     15261     15263
     15260     15259     15261     15264     15260     15259     15265     15266
     15260     15259     15265     15267     15260     15259     15265     15268
     15261     15259     15265     15266     15261     15259     15265     15267
     15261     15259     15265     15268     15262     15261     15259     15265
     15263     15261     15259     15265     15264     15261     15259     15265
     15265     15268     15271     15272     15265     15268     15271     15273
     15265     15268     15271     15274     15266     15265     15268     15269
     15266     15265     15268     15270     15266     15265     15268     15271
     15267     15265     15268     15269     15267     15265     15268     15270
     15267     15265     15268     15271     15268     15271     15274     15275
     15268     15271     15274     15276     15268     15271     15274     15280
     15269     15268     15271     15272     15269     15268     15271     15273
     15269     15268     15271     15274     15270     15268     15271     15272
     15270     15268     15271     15273     15270     15268     15271     15274
     15271     15274     15276     15277     15271     15274     15276     15278
     15271     15274     15276     15279     15271     15274     15280     15281
     15271     15274     15280     15282     15271     15274     15280     15283
     15272     15271     15274     15275     15272     15271     15274     15276
     15272     15271     15274     15280     15273     15271     15274     15275
     15273     15271     15274     15276     15273     15271     15274     15280
     15275     15274     15276     15277     15275     15274     15276     15278
     15275     15274     15276     15279     15275     15274     15280     15281
     15275     15274     15280     15282     15275     15274     15280     15283
     15276     15274     15280     15281     15276     15274     15280     15282
     15276     15274     15280     15283     15277     15276     15274     15280
     15278     15276     15274     15280     15279     15276     15274     15280
     15284     15288     15291     15292     15284     15288     15291     15293
     15284     15288     15291     15297     15285     15284     15288     15289
     15285     15284     15288     15290     15285     15284     15288     15291
     15286     15284     15288     15289     15286     15284     15288     15290
     15286     15284     15288     15291     15287     15284     15288     15289
     15287     15284     15288     15290     15287     15284     15288     15291
     15288     15291     15297     15294     15289     15288     15291     15292
     15289     15288     15291     15293     15289     15288     15291     15297
     15290     15288     15291     15292     15290     15288     15291     15293
     15290     15288     15291     15297     15291     15297     15294     15295
     15291     15297     15294     15296     15291     15297     15294     15298
     15292     15291     15297     15294     15293     15291     15297     15294
     15294     15298     15299     15300     15294     15298     15299     15301
     15294     15298     15299     15302     15295     15294     15298     15299
     15296     15294     15298     15299     15297     15294     15298     15299
     15298     15299     15302     15303     15298     15299     15302     15304
     15298     15299     15302     15310     15299     15302     15304     15305
     15299     15302     15310     15311     15299     15302     15310     15312
     15299     15302     15310     15313     15300     15299     15302     15303
     15300     15299     15302     15304     15300     15299     15302     15310
     15301     15299     15302     15303     15301     15299     15302     15304
     15301     15299     15302     15310     15302     15304     15305     15306
     15302     15304     15305     15307     15302     15310     15313     15314
     15303     15302     15304     15305     15303     15302     15310     15311
     15303     15302     15310     15312     15303     15302     15310     15313
     15304     15302     15310     15311     15304     15302     15310     15312
     15304     15302     15310     15313     15304     15305     15307     15308
     15304     15305     15307     15309     15304     15305     15307     15319
     15305     15304     15302     15310     15305     15307     15319     15320
     15305     15307     15319     15321     15305     15307     15319     15322
     15306     15305     15307     15308     15306     15305     15307     15309
     15306     15305     15307     15319     15307     15319     15322     15323
     15307     15319     15322     15324     15307     15319     15322     15325
     15308     15307     15319     15320     15308     15307     15319     15321
     15308     15307     15319     15322     15309     15307     15319     15320
     15309     15307     15319     15321     15309     15307     15319     15322
     15310     15313     15314     15315     15310     15313     15314     15316
     15311     15310     15313     15314     15312     15310     15313     15314
     15313     15314     15316     15317     15313     15314     15316     15318
     15313     15314     15316     15366     15314     15316     15366     15367
     15314     15316     15366     15368     15314     15316     15366     15369
     15315     15314     15316     15317     15315     15314     15316     15318
     15315     15314     15316     15366     15316     15366     15369     15370
     15316     15366     15369     15371     15316     15366     15369     15372
     15317     15316     15366     15367     15317     15316     15366     15368
     15317     15316     15366     15369     15318     15316     15366     15367
     15318     15316     15366     15368     15318     15316     15366     15369
     15319     15322     15325     15326     15319     15322     15325     15327
     15320     15319     15322     15323     15320     15319     15322     15324
     15320     15319     15322     15325     15321     15319     15322     15323
     15321     15319     15322     15324     15321     15319     15322     15325
     15322     15325     15327     15328     15322     15325     15327     15329
     15323     15322     15325     15326     15323     15322     15325     15327
     15324     15322     15325     15326     15324     15322     15325     15327
     15325     15327     15329     15330     15325     15327     15329     15331
     15325     15327     15329     15332     15326     15325     15327     15328
     15326     15325     15327     15329     15327     15329     15332     15333
     15327     15329     15332     15334     15328     15327     15329     15330
     15328     15327     15329     15331     15328     15327     15329     15332
     15329     15332     15334     15335     15329     15332     15334     15336
     15330     15329     15332     15333     15330     15329     15332     15334
     15331     15329     15332     15333     15331     15329     15332     15334
     15332     15334     15336     15337     15332     15334     15336     15338
     15332     15334     15336     15339     15333     15332     15334     15335
     15333     15332     15334     15336     15334     15336     15339     15340
     15334     15336     15339     15341     15335     15334     15336     15337
     15335     15334     15336     15338     15335     15334     15336     15339
     15336     15339     15341     15342     15336     15339     15341     15343
     15337     15336     15339     15340     15337     15336     15339     15341
     15338     15336     15339     15340     15338     15336     15339     15341
     15339     15341     15343     15344     15339     15341     15343     15345
     15339     15341     15343     15346     15340     15339     15341     15342
     15340     15339     15341     15343     15341     15343     15346     15347
     15341     15343     15346     15348     15342     15341     15343     15344
     15342     15341     15343     15345     15342     15341     15343     15346
     15343     15346     15348     15349     15343     15346     15348     15350
     15344     15343     15346     15347     15344     15343     15346     15348
     15345     15343     15346     15347     15345     15343     15346     15348
     15346     15348     15350     15351     15346     15348     15350     15352
     15346     15348     15350     15353     15347     15346     15348     15349
     15347     15346     15348     15350     15348     15350     15353     15354
     15348     15350     15353     15355     15348     15350     15353     15356
     15349     15348     15350     15351     15349     15348     15350     15352
     15349     15348     15350     15353     15350     15353     15356     15357
     15350     15353     15356     15358     15350     15353     15356     15359
     15351     15350     15353     15354     15351     15350     15353     15355
     15351     15350     15353     15356     15352     15350     15353     15354
     15352     15350     15353     15355     15352     15350     15353     15356
     15353     15356     15359     15360     15353     15356     15359     15361
     15353     15356     15359     15362     15354     15353     15356     15357
     15354     15353     15356     15358     15354     15353     15356     15359
     15355     15353     15356     15357     15355     15353     15356     15358
     15355     15353     15356     15359     15356     15359     15362     15363
     15356     15359     15362     15364     15356     15359     15362     15365
     15357     15356     15359     15360     15357     15356     15359     15361
     15357     15356     15359     15362     15358     15356     15359     15360
     15358     15356     15359     15361     15358     15356     15359     15362
     15360     15359     15362     15363     15360     15359     15362     15364
     15360     15359     15362     15365     15361     15359     15362     15363
     15361     15359     15362     15364     15361     15359     15362     15365
     15366     15369     15372     15373     15366     15369     15372     15374
     15366     15369     15372     15375     15367     15366     15369     15370
     15367     15366     15369     15371     15367     15366     15369     15372
     15368     15366     15369     15370     15368     15366     15369     15371
     15368     15366     15369     15372     15369     15372     15375     15376
     15369     15372     15375     15377     15369     15372     15375     15378
     15370     15369     15372     15373     15370     15369     15372     15374
     15370     15369     15372     15375     15371     15369     15372     15373
     15371     15369     15372     15374     15371     15369     15372     15375
     15372     15375     15378     15379     15372     15375     15378     15380
     15372     15375     15378     15381     15373     15372     15375     15376
     15373     15372     15375     15377     15373     15372     15375     15378
     15374     15372     15375     15376     15374     15372     15375     15377
     15374     15372     15375     15378     15375     15378     15381     15382
     15375     15378     15381     15383     15375     15378     15381     15384
     15376     15375     15378     15379     15376     15375     15378     15380
     15376     15375     15378     15381     15377     15375     15378     15379
     15377     15375     15378     15380     15377     15375     15378     15381
     15378     15381     15384     15385     15378     15381     15384     15386
     15378     15381     15384     15387     15379     15378     15381     15382
     15379     15378     15381     15383     15379     15378     15381     15384
     15380     15378     15381     15382     15380     15378     15381     15383
     15380     15378     15381     15384     15381     15384     15387     15388
     15381     15384     15387     15389     15381     15384     15387     15390
     15382     15381     15384     15385     15382     15381     15384     15386
     15382     15381     15384     15387     15383     15381     15384     15385
     15383     15381     15384     15386     15383     15381     15384     15387
     15384     15387     15390     15391     15384     15387     15390     15392
     15384     15387     15390     15393     15385     15384     15387     15388
     15385     15384     15387     15389     15385     15384     15387     15390
     15386     15384     15387     15388     15386     15384     15387     15389
     15386     15384     15387     15390     15387     15390     15393     15394
     15387     15390     15393     15395     15387     15390     15393     15396
     15388     15387     15390     15391     15388     15387     15390     15392
     15388     15387     15390     15393     15389     15387     15390     15391
     15389     15387     15390     15392     15389     15387     15390     15393
     15390     15393     15396     15397     15390     15393     15396     15398
     15390     15393     15396     15399     15391     15390     15393     15394
     15391     15390     15393     15395     15391     15390     15393     15396
     15392     15390     15393     15394     15392     15390     15393     15395
     15392     15390     15393     15396     15393     15396     15399     15400
     15393     15396     15399     15401     15393     15396     15399     15402
     15394     15393     15396     15397     15394     15393     15396     15398
     15394     15393     15396     15399     15395     15393     15396     15397
     15395     15393     15396     15398     15395     15393     15396     15399
     15396     15399     15402     15403     15396     15399     15402     15404
     15396     15399     15402     15405     15397     15396     15399     15400
     15397     15396     15399     15401     15397     15396     15399     15402
     15398     15396     15399     15400     15398     15396     15399     15401
     15398     15396     15399     15402     15399     15402     15405     15406
     15399     15402     15405     15407     15399     15402     15405     15408
     15400     15399     15402     15403     15400     15399     15402     15404
     15400     15399     15402     15405     15401     15399     15402     15403
     15401     15399     15402     15404     15401     15399     15402     15405
     15402     15405     15408     15409     15402     15405     15408     15410
     15402     15405     15408     15411     15403     15402     15405     15406
     15403     15402     15405     15407     15403     15402     15405     15408
     15404     15402     15405     15406     15404     15402     15405     15407
     15404     15402     15405     15408     15405     15408     15411     15412
     15405     15408     15411     15413     15405     15408     15411     15414
     15406     15405     15408     15409     15406     15405     15408     15410
     15406     15405     15408     15411     15407     15405     15408     15409
     15407     15405     15408     15410     15407     15405     15408     15411
     15409     15408     15411     15412     15409     15408     15411     15413
     15409     15408     15411     15414     15410     15408     15411     15412
     15410     15408     15411     15413     15410     15408     15411     15414
     15415     15416     15431     15432     15415     15416     15431     15433
     15415     15416     15431     15437     15416     15415     15419     15420
     15416     15415     15419     15421     15416     15415     15419     15422
     15416     15415     15423     15424     15416     15415     15423     15425
     15416     15415     15423     15426     15416     15415     15427     15428
     15416     15415     15427     15429     15416     15415     15427     15430
     15416     15431     15437     15434     15417     15416     15415     15419
     15417     15416     15415     15423     15417     15416     15415     15427
     15417     15416     15431     15432     15417     15416     15431     15433
     15417     15416     15431     15437     15418     15416     15415     15419
     15418     15416     15415     15423     15418     15416     15415     15427
     15418     15416     15431     15432     15418     15416     15431     15433
     15418     15416     15431     15437     15419     15415     15416     15431
     15419     15415     15423     15424     15419     15415     15423     15425
     15419     15415     15423     15426     15419     15415     15427     15428
     15419     15415     15427     15429     15419     15415     15427     15430
     15420     15419     15415     15423     15420     15419     15415     15427
     15421     15419     15415     15423     15421     15419     15415     15427
     15422     15419     15415     15423     15422     15419     15415     15427
     15423     15415     15416     15431     15423     15415     15427     15428
     15423     15415     15427     15429     15423     15415     15427     15430
     15424     15423     15415     15427     15425     15423     15415     15427
     15426     15423     15415     15427     15427     15415     15416     15431
     15431     15437     15434     15435     15431     15437     15434     15436
     15431     15437     15434     15438     15432     15431     15437     15434
     15433     15431     15437     15434     15434     15438     15439     15440
     15434     15438     15439     15441     15434     15438     15439     15442
     15435     15434     15438     15439     15436     15434     15438     15439
     15437     15434     15438     15439     15438     15439     15442     15443
     15438     15439     15442     15444     15438     15439     15442     15450
     15439     15442     15444     15445     15439     15442     15450     15451
     15439     15442     15450     15452     15439     15442     15450     15453
     15440     15439     15442     15443     15440     15439     15442     15444
     15440     15439     15442     15450     15441     15439     15442     15443
     15441     15439     15442     15444     15441     15439     15442     15450
     15442     15444     15445     15446     15442     15444     15445     15447
     15442     15450     15453     15454     15443     15442     15444     15445
     15443     15442     15450     15451     15443     15442     15450     15452
     15443     15442     15450     15453     15444     15442     15450     15451
     15444     15442     15450     15452     15444     15442     15450     15453
     15444     15445     15447     15448     15444     15445     15447     15449
     15444     15445     15447     15459     15445     15444     15442     15450
     15445     15447     15459     15460     15445     15447     15459     15461
     15445     15447     15459     15462     15446     15445     15447     15448
     15446     15445     15447     15449     15446     15445     15447     15459
     15447     15459     15462     15463     15447     15459     15462     15464
     15447     15459     15462     15465     15448     15447     15459     15460
     15448     15447     15459     15461     15448     15447     15459     15462
     15449     15447     15459     15460     15449     15447     15459     15461
     15449     15447     15459     15462     15450     15453     15454     15455
     15450     15453     15454     15456     15451     15450     15453     15454
     15452     15450     15453     15454     15453     15454     15456     15457
     15453     15454     15456     15458     15453     15454     15456     15506
     15454     15456     15506     15507     15454     15456     15506     15508
     15454     15456     15506     15509     15455     15454     15456     15457
     15455     15454     15456     15458     15455     15454     15456     15506
     15456     15506     15509     15510     15456     15506     15509     15511
     15456     15506     15509     15512     15457     15456     15506     15507
     15457     15456     15506     15508     15457     15456     15506     15509
     15458     15456     15506     15507     15458     15456     15506     15508
     15458     15456     15506     15509     15459     15462     15465     15466
     15459     15462     15465     15467     15459     15462     15465     15468
     15460     15459     15462     15463     15460     15459     15462     15464
     15460     15459     15462     15465     15461     15459     15462     15463
     15461     15459     15462     15464     15461     15459     15462     15465
     15462     15465     15468     15469     15462     15465     15468     15470
     15462     15465     15468     15471     15463     15462     15465     15466
     15463     15462     15465     15467     15463     15462     15465     15468
     15464     15462     15465     15466     15464     15462     15465     15467
     15464     15462     15465     15468     15465     15468     15471     15472
     15465     15468     15471     15473     15465     15468     15471     15474
     15466     15465     15468     15469     15466     15465     15468     15470
     15466     15465     15468     15471     15467     15465     15468     15469
     15467     15465     15468     15470     15467     15465     15468     15471
     15468     15471     15474     15475     15468     15471     15474     15476
     15468     15471     15474     15477     15469     15468     15471     15472
     15469     15468     15471     15473     15469     15468     15471     15474
     15470     15468     15471     15472     15470     15468     15471     15473
     15470     15468     15471     15474     15471     15474     15477     15478
     15471     15474     15477     15479     15472     15471     15474     15475
     15472     15471     15474     15476     15472     15471     15474     15477
     15473     15471     15474     15475     15473     15471     15474     15476
     15473     15471     15474     15477     15474     15477     15479     15480
     15474     15477     15479     15481     15475     15474     15477     15478
     15475     15474     15477     15479     15476     15474     15477     15478
     15476     15474     15477     15479     15477     15479     15481     15482
     15477     15479     15481     15483     15477     15479     15481     15484
     15478     15477     15479     15480     15478     15477     15479     15481
     15479     15481     15484     15485     15479     15481     15484     15486
     15479     15481     15484     15487     15480     15479     15481     15482
     15480     15479     15481     15483     15480     15479     15481     15484
     15481     15484     15487     15488     15481     15484     15487     15489
     15481     15484     15487     15490     15482     15481     15484     15485
     15482     15481     15484     15486     15482     15481     15484     15487
     15483     15481     15484     15485     15483     15481     15484     15486
     15483     15481     15484     15487     15484     15487     15490     15491
     15484     15487     15490     15492     15484     15487     15490     15493
     15485     15484     15487     15488     15485     15484     15487     15489
     15485     15484     15487     15490     15486     15484     15487     15488
     15486     15484     15487     15489     15486     15484     15487     15490
     15487     15490     15493     15494     15487     15490     15493     15495
     15487     15490     15493     15496     15488     15487     15490     15491
     15488     15487     15490     15492     15488     15487     15490     15493
     15489     15487     15490     15491     15489     15487     15490     15492
     15489     15487     15490     15493     15490     15493     15496     15497
     15490     15493     15496     15498     15490     15493     15496     15499
     15491     15490     15493     15494     15491     15490     15493     15495
     15491     15490     15493     15496     15492     15490     15493     15494
     15492     15490     15493     15495     15492     15490     15493     15496
     15493     15496     15499     15500     15493     15496     15499     15501
     15493     15496     15499     15502     15494     15493     15496     15497
     15494     15493     15496     15498     15494     15493     15496     15499
     15495     15493     15496     15497     15495     15493     15496     15498
     15495     15493     15496     15499     15496     15499     15502     15503
     15496     15499     15502     15504     15496     15499     15502     15505
     15497     15496     15499     15500     15497     15496     15499     15501
     15497     15496     15499     15502     15498     15496     15499     15500
     15498     15496     15499     15501     15498     15496     15499     15502
     15500     15499     15502     15503     15500     15499     15502     15504
     15500     15499     15502     15505     15501     15499     15502     15503
     15501     15499     15502     15504     15501     15499     15502     15505
     15506     15509     15512     15513     15506     15509     15512     15514
     15506     15509     15512     15515     15507     15506     15509     15510
     15507     15506     15509     15511     15507     15506     15509     15512
     15508     15506     15509     15510     15508     15506     15509     15511
     15508     15506     15509     15512     15509     15512     15515     15516
     15509     15512     15515     15517     15509     15512     15515     15518
     15510     15509     15512     15513     15510     15509     15512     15514
     15510     15509     15512     15515     15511     15509     15512     15513
     15511     15509     15512     15514     15511     15509     15512     15515
     15512     15515     15518     15519     15512     15515     15518     15520
     15512     15515     15518     15521     15513     15512     15515     15516
     15513     15512     15515     15517     15513     15512     15515     15518
     15514     15512     15515     15516     15514     15512     15515     15517
     15514     15512     15515     15518     15515     15518     15521     15522
     15515     15518     15521     15523     15515     15518     15521     15524
     15516     15515     15518     15519     15516     15515     15518     15520
     15516     15515     15518     15521     15517     15515     15518     15519
     15517     15515     15518     15520     15517     15515     15518     15521
     15518     15521     15524     15525     15518     15521     15524     15526
     15518     15521     15524     15527     15519     15518     15521     15522
     15519     15518     15521     15523     15519     15518     15521     15524
     15520     15518     15521     15522     15520     15518     15521     15523
     15520     15518     15521     15524     15521     15524     15527     15528
     15521     15524     15527     15529     15521     15524     15527     15530
     15522     15521     15524     15525     15522     15521     15524     15526
     15522     15521     15524     15527     15523     15521     15524     15525
     15523     15521     15524     15526     15523     15521     15524     15527
     15524     15527     15530     15531     15524     15527     15530     15532
     15524     15527     15530     15533     15525     15524     15527     15528
     15525     15524     15527     15529     15525     15524     15527     15530
     15526     15524     15527     15528     15526     15524     15527     15529
     15526     15524     15527     15530     15527     15530     15533     15534
     15527     15530     15533     15535     15527     15530     15533     15536
     15528     15527     15530     15531     15528     15527     15530     15532
     15528     15527     15530     15533     15529     15527     15530     15531
     15529     15527     15530     15532     15529     15527     15530     15533
     15530     15533     15536     15537     15530     15533     15536     15538
     15530     15533     15536     15539     15531     15530     15533     15534
     15531     15530     15533     15535     15531     15530     15533     15536
     15532     15530     15533     15534     15532     15530     15533     15535
     15532     15530     15533     15536     15533     15536     15539     15540
     15533     15536     15539     15541     15533     15536     15539     15542
     15534     15533     15536     15537     15534     15533     15536     15538
     15534     15533     15536     15539     15535     15533     15536     15537
     15535     15533     15536     15538     15535     15533     15536     15539
     15536     15539     15542     15543     15536     15539     15542     15544
     15536     15539     15542     15545     15537     15536     15539     15540
     15537     15536     15539     15541     15537     15536     15539     15542
     15538     15536     15539     15540     15538     15536     15539     15541
     15538     15536     15539     15542     15539     15542     15545     15546
     15539     15542     15545     15547     15539     15542     15545     15548
     15540     15539     15542     15543     15540     15539     15542     15544
     15540     15539     15542     15545     15541     15539     15542     15543
     15541     15539     15542     15544     15541     15539     15542     15545
     15543     15542     15545     15546     15543     15542     15545     15547
     15543     15542     15545     15548     15544     15542     15545     15546
     15544     15542     15545     15547     15544     15542     15545     15548
     15549     15553     15556     15557     15549     15553     15556     15587
     15549     15595     15592     15587     15549     15595     15592     15593
     15549     15595     15592     15594     15550     15549     15551     15552
     15550     15549     15553     15554     15550     15549     15553     15555
     15550     15549     15553     15556     15550     15549     15595     15592
     15550     15549     15595     15596     15550     15549     15595     15597
     15551     15549     15553     15554     15551     15549     15553     15555
     15551     15549     15553     15556     15551     15549     15595     15592
     15551     15549     15595     15596     15551     15549     15595     15597
     15552     15551     15549     15553     15552     15551     15549     15595
     15553     15549     15595     15592     15553     15549     15595     15596
     15553     15549     15595     15597     15553     15556     15557     15558
     15553     15556     15557     15559     15553     15556     15587     15585
     15553     15556     15587     15588     15553     15556     15587     15592
     15554     15553     15549     15595     15554     15553     15556     15557
     15554     15553     15556     15587     15555     15553     15549     15595
     15555     15553     15556     15557     15555     15553     15556     15587
     15556     15553     15549     15595     15556     15557     15559     15560
     15556     15557     15559     15561     15556     15557     15559     15562
     15556     15587     15585     15562     15556     15587     15585     15582
     15556     15587     15585     15586     15556     15587     15588     15589
     15556     15587     15588     15590     15556     15587     15588     15591
     15556     15587     15592     15593     15556     15587     15592     15594
     15556     15587     15592     15595     15557     15556     15587     15585
     15557     15556     15587     15588     15557     15556     15587     15592
     15557     15559     15562     15563     15557     15559     15562     15564
     15557     15559     15562     15585     15558     15557     15556     15587
     15558     15557     15559     15560     15558     15557     15559     15561
     15558     15557     15559     15562     15559     15557     15556     15587
     15559     15562     15564     15565     15559     15562     15564     15566
     15559     15562     15564     15574     15559     15562     15585     15582
     15559     15562     15585     15586     15559     15562     15585     15587
     15560     15559     15562     15563     15560     15559     15562     15564
     15560     15559     15562     15585     15561     15559     15562     15563
     15561     15559     15562     15564     15561     15559     15562     15585
     15562     15564     15566     15567     15562     15564     15566     15568
     15562     15564     15566     15569     15562     15564     15574     15572
     15562     15564     15574     15575     15562     15564     15574     15579
     15562     15585     15582     15579     15562     15585     15582     15583
     15562     15585     15582     15584     15562     15585     15587     15588
     15562     15585     15587     15592     15563     15562     15564     15565
     15563     15562     15564     15566     15563     15562     15564     15574
     15563     15562     15585     15582     15563     15562     15585     15586
     15563     15562     15585     15587     15564     15562     15585     15582
     15564     15562     15585     15586     15564     15562     15585     15587
     15564     15566     15569     15570     15564     15566     15569     15571
     15564     15566     15569     15572     15564     15574     15572     15569
     15564     15574     15572     15573     15564     15574     15572     15598
     15564     15574     15575     15576     15564     15574     15575     15577
     15564     15574     15575     15578     15564     15574     15579     15580
     15564     15574     15579     15581     15564     15574     15579     15582
     15565     15564     15562     15585     15565     15564     15566     15567
     15565     15564     15566     15568     15565     15564     15566     15569
     15565     15564     15574     15572     15565     15564     15574     15575
     15565     15564     15574     15579     15566     15564     15562     15585
     15566     15564     15574     15572     15566     15564     15574     15575
     15566     15564     15574     15579     15566     15569     15572     15573
     15566     15569     15572     15574     15566     15569     15572     15598
     15567     15566     15564     15574     15567     15566     15569     15570
     15567     15566     15569     15571     15567     15566     15569     15572
     15568     15566     15564     15574     15568     15566     15569     15570
     15568     15566     15569     15571     15568     15566     15569     15572
     15569     15566     15564     15574     15569     15572     15574     15575
     15569     15572     15574     15579     15569     15572     15598     15599
     15569     15572     15598     15600     15569     15572     15598     15604
     15570     15569     15572     15573     15570     15569     15572     15574
     15570     15569     15572     15598     15571     15569     15572     15573
     15571     15569     15572     15574     15571     15569     15572     15598
     15572     15574     15575     15576     15572     15574     15575     15577
     15572     15574     15575     15578     15572     15574     15579     15580
     15572     15574     15579     15581     15572     15574     15579     15582
     15572     15598     15600     15601     15572     15598     15600     15602
     15572     15598     15600     15603     15572     15598     15604     15605
     15572     15598     15604     15606     15572     15598     15604     15607
     15573     15572     15574     15575     15573     15572     15574     15579
     15573     15572     15598     15599     15573     15572     15598     15600
     15573     15572     15598     15604     15574     15564     15562     15585
     15574     15572     15598     15599     15574     15572     15598     15600
     15574     15572     15598     15604     15574     15579     15582     15583
     15574     15579     15582     15584     15574     15579     15582     15585
     15575     15574     15572     15598     15575     15574     15579     15580
     15575     15574     15579     15581     15575     15574     15579     15582
     15576     15575     15574     15579     15577     15575     15574     15579
     15578     15575     15574     15579     15579     15574     15572     15598
     15579     15582     15585     15586     15579     15582     15585     15587
     15580     15579     15582     15583     15580     15579     15582     15584
     15580     15579     15582     15585     15581     15579     15582     15583
     15581     15579     15582     15584     15581     15579     15582     15585
     15582     15585     15587     15588     15582     15585     15587     15592
     15583     15582     15585     15586     15583     15582     15585     15587
     15584     15582     15585     15586     15584     15582     15585     15587
     15585     15587     15588     15589     15585     15587     15588     15590
     15585     15587     15588     15591     15585     15587     15592     15593
     15585     15587     15592     15594     15585     15587     15592     15595
     15586     15585     15587     15588     15586     15585     15587     15592
     15587     15592     15595     15596     15587     15592     15595     15597
     15588     15587     15592     15593     15588     15587     15592     15594
     15588     15587     15592     15595     15589     15588     15587     15592
     15590     15588     15587     15592     15591     15588     15587     15592
     15593     15592     15595     15596     15593     15592     15595     15597
     15594     15592     15595     15596     15594     15592     15595     15597
     15598     15604     15607     15608     15598     15604     15607     15609
     15598     15604     15607     15610     15599     15598     15600     15601
     15599     15598     15600     15602     15599     15598     15600     15603
     15599     15598     15604     15605     15599     15598     15604     15606
     15599     15598     15604     15607     15600     15598     15604     15605
     15600     15598     15604     15606     15600     15598     15604     15607
     15601     15600     15598     15604     15602     15600     15598     15604
     15603     15600     15598     15604     15604     15607     15610     15611
     15604     15607     15610     15612     15604     15607     15610     15613
     15605     15604     15607     15608     15605     15604     15607     15609
     15605     15604     15607     15610     15606     15604     15607     15608
     15606     15604     15607     15609     15606     15604     15607     15610
     15607     15610     15613     15614     15607     15610     15613     15615
     15607     15610     15613     15619     15608     15607     15610     15611
     15608     15607     15610     15612     15608     15607     15610     15613
     15609     15607     15610     15611     15609     15607     15610     15612
     15609     15607     15610     15613     15610     15613     15615     15616
     15610     15613     15615     15617     15610     15613     15615     15618
     15610     15613     15619     15620     15610     15613     15619     15621
     15610     15613     15619     15622     15611     15610     15613     15614
     15611     15610     15613     15615     15611     15610     15613     15619
     15612     15610     15613     15614     15612     15610     15613     15615
     15612     15610     15613     15619     15614     15613     15615     15616
     15614     15613     15615     15617     15614     15613     15615     15618
     15614     15613     15619     15620     15614     15613     15619     15621
     15614     15613     15619     15622     15615     15613     15619     15620
     15615     15613     15619     15621     15615     15613     15619     15622
     15616     15615     15613     15619     15617     15615     15613     15619
     15618     15615     15613     15619     15623     15627     15630     15631
     15623     15627     15630     15661     15623     15669     15666     15661
     15623     15669     15666     15667     15623     15669     15666     15668
     15624     15623     15625     15626     15624     15623     15627     15628
     15624     15623     15627     15629     15624     15623     15627     15630
     15624     15623     15669     15666     15624     15623     15669     15670
     15624     15623     15669     15671     15625     15623     15627     15628
     15625     15623     15627     15629     15625     15623     15627     15630
     15625     15623     15669     15666     15625     15623     15669     15670
     15625     15623     15669     15671     15626     15625     15623     15627
     15626     15625     15623     15669     15627     15623     15669     15666
     15627     15623     15669     15670     15627     15623     15669     15671
     15627     15630     15631     15632     15627     15630     15631     15633
     15627     15630     15661     15659     15627     15630     15661     15662
     15627     15630     15661     15666     15628     15627     15623     15669
     15628     15627     15630     15631     15628     15627     15630     15661
     15629     15627     15623     15669     15629     15627     15630     15631
     15629     15627     15630     15661     15630     15627     15623     15669
     15630     15631     15633     15634     15630     15631     15633     15635
     15630     15631     15633     15636     15630     15661     15659     15636
     15630     15661     15659     15656     15630     15661     15659     15660
     15630     15661     15662     15663     15630     15661     15662     15664
     15630     15661     15662     15665     15630     15661     15666     15667
     15630     15661     15666     15668     15630     15661     15666     15669
     15631     15630     15661     15659     15631     15630     15661     15662
     15631     15630     15661     15666     15631     15633     15636     15637
     15631     15633     15636     15638     15631     15633     15636     15659
     15632     15631     15630     15661     15632     15631     15633     15634
     15632     15631     15633     15635     15632     15631     15633     15636
     15633     15631     15630     15661     15633     15636     15638     15639
     15633     15636     15638     15640     15633     15636     15638     15648
     15633     15636     15659     15656     15633     15636     15659     15660
     15633     15636     15659     15661     15634     15633     15636     15637
     15634     15633     15636     15638     15634     15633     15636     15659
     15635     15633     15636     15637     15635     15633     15636     15638
     15635     15633     15636     15659     15636     15638     15640     15641
     15636     15638     15640     15642     15636     15638     15640     15643
     15636     15638     15648     15646     15636     15638     15648     15649
     15636     15638     15648     15653     15636     15659     15656     15653
     15636     15659     15656     15657     15636     15659     15656     15658
     15636     15659     15661     15662     15636     15659     15661     15666
     15637     15636     15638     15639     15637     15636     15638     15640
     15637     15636     15638     15648     15637     15636     15659     15656
     15637     15636     15659     15660     15637     15636     15659     15661
     15638     15636     15659     15656     15638     15636     15659     15660
     15638     15636     15659     15661     15638     15640     15643     15644
     15638     15640     15643     15645     15638     15640     15643     15646
     15638     15648     15646     15643     15638     15648     15646     15647
     15638     15648     15646     15672     15638     15648     15649     15650
     15638     15648     15649     15651     15638     15648     15649     15652
     15638     15648     15653     15654     15638     15648     15653     15655
     15638     15648     15653     15656     15639     15638     15636     15659
     15639     15638     15640     15641     15639     15638     15640     15642
     15639     15638     15640     15643     15639     15638     15648     15646
     15639     15638     15648     15649     15639     15638     15648     15653
     15640     15638     15636     15659     15640     15638     15648     15646
     15640     15638     15648     15649     15640     15638     15648     15653
     15640     15643     15646     15647     15640     15643     15646     15648
     15640     15643     15646     15672     15641     15640     15638     15648
     15641     15640     15643     15644     15641     15640     15643     15645
     15641     15640     15643     15646     15642     15640     15638     15648
     15642     15640     15643     15644     15642     15640     15643     15645
     15642     15640     15643     15646     15643     15640     15638     15648
     15643     15646     15648     15649     15643     15646     15648     15653
     15643     15646     15672     15673     15643     15646     15672     15674
     15643     15646     15672     15678     15644     15643     15646     15647
     15644     15643     15646     15648     15644     15643     15646     15672
     15645     15643     15646     15647     15645     15643     15646     15648
     15645     15643     15646     15672     15646     15648     15649     15650
     15646     15648     15649     15651     15646     15648     15649     15652
     15646     15648     15653     15654     15646     15648     15653     15655
     15646     15648     15653     15656     15646     15672     15674     15675
     15646     15672     15674     15676     15646     15672     15674     15677
     15646     15672     15678     15679     15646     15672     15678     15680
     15646     15672     15678     15681     15647     15646     15648     15649
     15647     15646     15648     15653     15647     15646     15672     15673
     15647     15646     15672     15674     15647     15646     15672     15678
     15648     15638     15636     15659     15648     15646     15672     15673
     15648     15646     15672     15674     15648     15646     15672     15678
     15648     15653     15656     15657     15648     15653     15656     15658
     15648     15653     15656     15659     15649     15648     15646     15672
     15649     15648     15653     15654     15649     15648     15653     15655
     15649     15648     15653     15656     15650     15649     15648     15653
     15651     15649     15648     15653     15652     15649     15648     15653
     15653     15648     15646     15672     15653     15656     15659     15660
     15653     15656     15659     15661     15654     15653     15656     15657
     15654     15653     15656     15658     15654     15653     15656     15659
     15655     15653     15656     15657     15655     15653     15656     15658
     15655     15653     15656     15659     15656     15659     15661     15662
     15656     15659     15661     15666     15657     15656     15659     15660
     15657     15656     15659     15661     15658     15656     15659     15660
     15658     15656     15659     15661     15659     15661     15662     15663
     15659     15661     15662     15664     15659     15661     15662     15665
     15659     15661     15666     15667     15659     15661     15666     15668
     15659     15661     15666     15669     15660     15659     15661     15662
     15660     15659     15661     15666     15661     15666     15669     15670
     15661     15666     15669     15671     15662     15661     15666     15667
     15662     15661     15666     15668     15662     15661     15666     15669
     15663     15662     15661     15666     15664     15662     15661     15666
     15665     15662     15661     15666     15667     15666     15669     15670
     15667     15666     15669     15671     15668     15666     15669     15670
     15668     15666     15669     15671     15672     15678     15681     15682
     15672     15678     15681     15683     15672     15678     15681     15684
     15673     15672     15674     15675     15673     15672     15674     15676
     15673     15672     15674     15677     15673     15672     15678     15679
     15673     15672     15678     15680     15673     15672     15678     15681
     15674     15672     15678     15679     15674     15672     15678     15680
     15674     15672     15678     15681     15675     15674     15672     15678
     15676     15674     15672     15678     15677     15674     15672     15678
     15678     15681     15684     15685     15678     15681     15684     15686
     15678     15681     15684     15687     15679     15678     15681     15682
     15679     15678     15681     15683     15679     15678     15681     15684
     15680     15678     15681     15682     15680     15678     15681     15683
     15680     15678     15681     15684     15681     15684     15687     15688
     15681     15684     15687     15689     15681     15684     15687     15693
     15682     15681     15684     15685     15682     15681     15684     15686
     15682     15681     15684     15687     15683     15681     15684     15685
     15683     15681     15684     15686     15683     15681     15684     15687
     15684     15687     15689     15690     15684     15687     15689     15691
     15684     15687     15689     15692     15684     15687     15693     15694
     15684     15687     15693     15695     15684     15687     15693     15696
     15685     15684     15687     15688     15685     15684     15687     15689
     15685     15684     15687     15693     15686     15684     15687     15688
     15686     15684     15687     15689     15686     15684     15687     15693
     15688     15687     15689     15690     15688     15687     15689     15691
     15688     15687     15689     15692     15688     15687     15693     15694
     15688     15687     15693     15695     15688     15687     15693     15696
     15689     15687     15693     15694     15689     15687     15693     15695
     15689     15687     15693     15696     15690     15689     15687     15693
     15691     15689     15687     15693     15692     15689     15687     15693
     15697     15701     15704     15705     15697     15701     15704     15735
     15697     15743     15740     15735     15697     15743     15740     15741
     15697     15743     15740     15742     15698     15697     15699     15700
     15698     15697     15701     15702     15698     15697     15701     15703
     15698     15697     15701     15704     15698     15697     15743     15740
     15698     15697     15743     15744     15698     15697     15743     15745
     15699     15697     15701     15702     15699     15697     15701     15703
     15699     15697     15701     15704     15699     15697     15743     15740
     15699     15697     15743     15744     15699     15697     15743     15745
     15700     15699     15697     15701     15700     15699     15697     15743
     15701     15697     15743     15740     15701     15697     15743     15744
     15701     15697     15743     15745     15701     15704     15705     15706
     15701     15704     15705     15707     15701     15704     15735     15733
     15701     15704     15735     15736     15701     15704     15735     15740
     15702     15701     15697     15743     15702     15701     15704     15705
     15702     15701     15704     15735     15703     15701     15697     15743
     15703     15701     15704     15705     15703     15701     15704     15735
     15704     15701     15697     15743     15704     15705     15707     15708
     15704     15705     15707     15709     15704     15705     15707     15710
     15704     15735     15733     15710     15704     15735     15733     15730
     15704     15735     15733     15734     15704     15735     15736     15737
     15704     15735     15736     15738     15704     15735     15736     15739
     15704     15735     15740     15741     15704     15735     15740     15742
     15704     15735     15740     15743     15705     15704     15735     15733
     15705     15704     15735     15736     15705     15704     15735     15740
     15705     15707     15710     15711     15705     15707     15710     15712
     15705     15707     15710     15733     15706     15705     15704     15735
     15706     15705     15707     15708     15706     15705     15707     15709
     15706     15705     15707     15710     15707     15705     15704     15735
     15707     15710     15712     15713     15707     15710     15712     15714
     15707     15710     15712     15722     15707     15710     15733     15730
     15707     15710     15733     15734     15707     15710     15733     15735
     15708     15707     15710     15711     15708     15707     15710     15712
     15708     15707     15710     15733     15709     15707     15710     15711
     15709     15707     15710     15712     15709     15707     15710     15733
     15710     15712     15714     15715     15710     15712     15714     15716
     15710     15712     15714     15717     15710     15712     15722     15720
     15710     15712     15722     15723     15710     15712     15722     15727
     15710     15733     15730     15727     15710     15733     15730     15731
     15710     15733     15730     15732     15710     15733     15735     15736
     15710     15733     15735     15740     15711     15710     15712     15713
     15711     15710     15712     15714     15711     15710     15712     15722
     15711     15710     15733     15730     15711     15710     15733     15734
     15711     15710     15733     15735     15712     15710     15733     15730
     15712     15710     15733     15734     15712     15710     15733     15735
     15712     15714     15717     15718     15712     15714     15717     15719
     15712     15714     15717     15720     15712     15722     15720     15717
     15712     15722     15720     15721     15712     15722     15720     15746
     15712     15722     15723     15724     15712     15722     15723     15725
     15712     15722     15723     15726     15712     15722     15727     15728
     15712     15722     15727     15729     15712     15722     15727     15730
     15713     15712     15710     15733     15713     15712     15714     15715
     15713     15712     15714     15716     15713     15712     15714     15717
     15713     15712     15722     15720     15713     15712     15722     15723
     15713     15712     15722     15727     15714     15712     15710     15733
     15714     15712     15722     15720     15714     15712     15722     15723
     15714     15712     15722     15727     15714     15717     15720     15721
     15714     15717     15720     15722     15714     15717     15720     15746
     15715     15714     15712     15722     15715     15714     15717     15718
     15715     15714     15717     15719     15715     15714     15717     15720
     15716     15714     15712     15722     15716     15714     15717     15718
     15716     15714     15717     15719     15716     15714     15717     15720
     15717     15714     15712     15722     15717     15720     15722     15723
     15717     15720     15722     15727     15717     15720     15746     15747
     15717     15720     15746     15748     15717     15720     15746     15752
     15718     15717     15720     15721     15718     15717     15720     15722
     15718     15717     15720     15746     15719     15717     15720     15721
     15719     15717     15720     15722     15719     15717     15720     15746
     15720     15722     15723     15724     15720     15722     15723     15725
     15720     15722     15723     15726     15720     15722     15727     15728
     15720     15722     15727     15729     15720     15722     15727     15730
     15720     15746     15748     15749     15720     15746     15748     15750
     15720     15746     15748     15751     15720     15746     15752     15753
     15720     15746     15752     15754     15720     15746     15752     15755
     15721     15720     15722     15723     15721     15720     15722     15727
     15721     15720     15746     15747     15721     15720     15746     15748
     15721     15720     15746     15752     15722     15712     15710     15733
     15722     15720     15746     15747     15722     15720     15746     15748
     15722     15720     15746     15752     15722     15727     15730     15731
     15722     15727     15730     15732     15722     15727     15730     15733
     15723     15722     15720     15746     15723     15722     15727     15728
     15723     15722     15727     15729     15723     15722     15727     15730
     15724     15723     15722     15727     15725     15723     15722     15727
     15726     15723     15722     15727     15727     15722     15720     15746
     15727     15730     15733     15734     15727     15730     15733     15735
     15728     15727     15730     15731     15728     15727     15730     15732
     15728     15727     15730     15733     15729     15727     15730     15731
     15729     15727     15730     15732     15729     15727     15730     15733
     15730     15733     15735     15736     15730     15733     15735     15740
     15731     15730     15733     15734     15731     15730     15733     15735
     15732     15730     15733     15734     15732     15730     15733     15735
     15733     15735     15736     15737     15733     15735     15736     15738
     15733     15735     15736     15739     15733     15735     15740     15741
     15733     15735     15740     15742     15733     15735     15740     15743
     15734     15733     15735     15736     15734     15733     15735     15740
     15735     15740     15743     15744     15735     15740     15743     15745
     15736     15735     15740     15741     15736     15735     15740     15742
     15736     15735     15740     15743     15737     15736     15735     15740
     15738     15736     15735     15740     15739     15736     15735     15740
     15741     15740     15743     15744     15741     15740     15743     15745
     15742     15740     15743     15744     15742     15740     15743     15745
     15746     15752     15755     15756     15746     15752     15755     15757
     15746     15752     15755     15758     15747     15746     15748     15749
     15747     15746     15748     15750     15747     15746     15748     15751
     15747     15746     15752     15753     15747     15746     15752     15754
     15747     15746     15752     15755     15748     15746     15752     15753
     15748     15746     15752     15754     15748     15746     15752     15755
     15749     15748     15746     15752     15750     15748     15746     15752
     15751     15748     15746     15752     15752     15755     15758     15759
     15752     15755     15758     15760     15752     15755     15758     15761
     15753     15752     15755     15756     15753     15752     15755     15757
     15753     15752     15755     15758     15754     15752     15755     15756
     15754     15752     15755     15757     15754     15752     15755     15758
     15755     15758     15761     15762     15755     15758     15761     15763
     15755     15758     15761     15767     15756     15755     15758     15759
     15756     15755     15758     15760     15756     15755     15758     15761
     15757     15755     15758     15759     15757     15755     15758     15760
     15757     15755     15758     15761     15758     15761     15763     15764
     15758     15761     15763     15765     15758     15761     15763     15766
     15758     15761     15767     15768     15758     15761     15767     15769
     15758     15761     15767     15770     15759     15758     15761     15762
     15759     15758     15761     15763     15759     15758     15761     15767
     15760     15758     15761     15762     15760     15758     15761     15763
     15760     15758     15761     15767     15762     15761     15763     15764
     15762     15761     15763     15765     15762     15761     15763     15766
     15762     15761     15767     15768     15762     15761     15767     15769
     15762     15761     15767     15770     15763     15761     15767     15768
     15763     15761     15767     15769     15763     15761     15767     15770
     15764     15763     15761     15767     15765     15763     15761     15767
     15766     15763     15761     15767     15771     15775     15778     15779
     15771     15775     15778     15780     15771     15775     15778     15784
     15772     15771     15775     15776     15772     15771     15775     15777
     15772     15771     15775     15778     15773     15771     15775     15776
     15773     15771     15775     15777     15773     15771     15775     15778
     15774     15771     15775     15776     15774     15771     15775     15777
     15774     15771     15775     15778     15775     15778     15784     15781
     15776     15775     15778     15779     15776     15775     15778     15780
     15776     15775     15778     15784     15777     15775     15778     15779
     15777     15775     15778     15780     15777     15775     15778     15784
     15778     15784     15781     15782     15778     15784     15781     15783
     15778     15784     15781     15785     15779     15778     15784     15781
     15780     15778     15784     15781     15781     15785     15786     15787
     15781     15785     15786     15788     15781     15785     15786     15789
     15782     15781     15785     15786     15783     15781     15785     15786
     15784     15781     15785     15786     15785     15786     15789     15790
     15785     15786     15789     15791     15785     15786     15789     15797
     15786     15789     15791     15792     15786     15789     15797     15798
     15786     15789     15797     15799     15786     15789     15797     15800
     15787     15786     15789     15790     15787     15786     15789     15791
     15787     15786     15789     15797     15788     15786     15789     15790
     15788     15786     15789     15791     15788     15786     15789     15797
     15789     15791     15792     15793     15789     15791     15792     15794
     15789     15797     15800     15801     15790     15789     15791     15792
     15790     15789     15797     15798     15790     15789     15797     15799
     15790     15789     15797     15800     15791     15789     15797     15798
     15791     15789     15797     15799     15791     15789     15797     15800
     15791     15792     15794     15795     15791     15792     15794     15796
     15791     15792     15794     15806     15792     15791     15789     15797
     15792     15794     15806     15807     15792     15794     15806     15808
     15792     15794     15806     15809     15793     15792     15794     15795
     15793     15792     15794     15796     15793     15792     15794     15806
     15794     15806     15809     15810     15794     15806     15809     15811
     15794     15806     15809     15812     15795     15794     15806     15807
     15795     15794     15806     15808     15795     15794     15806     15809
     15796     15794     15806     15807     15796     15794     15806     15808
     15796     15794     15806     15809     15797     15800     15801     15802
     15797     15800     15801     15803     15798     15797     15800     15801
     15799     15797     15800     15801     15800     15801     15803     15804
     15800     15801     15803     15805     15800     15801     15803     15853
     15801     15803     15853     15854     15801     15803     15853     15855
     15801     15803     15853     15856     15802     15801     15803     15804
     15802     15801     15803     15805     15802     15801     15803     15853
     15803     15853     15856     15857     15803     15853     15856     15858
     15803     15853     15856     15859     15804     15803     15853     15854
     15804     15803     15853     15855     15804     15803     15853     15856
     15805     15803     15853     15854     15805     15803     15853     15855
     15805     15803     15853     15856     15806     15809     15812     15813
     15806     15809     15812     15814     15806     15809     15812     15815
     15807     15806     15809     15810     15807     15806     15809     15811
     15807     15806     15809     15812     15808     15806     15809     15810
     15808     15806     15809     15811     15808     15806     15809     15812
     15809     15812     15815     15816     15809     15812     15815     15817
     15809     15812     15815     15818     15810     15809     15812     15813
     15810     15809     15812     15814     15810     15809     15812     15815
     15811     15809     15812     15813     15811     15809     15812     15814
     15811     15809     15812     15815     15812     15815     15818     15819
     15812     15815     15818     15820     15812     15815     15818     15821
     15813     15812     15815     15816     15813     15812     15815     15817
     15813     15812     15815     15818     15814     15812     15815     15816
     15814     15812     15815     15817     15814     15812     15815     15818
     15815     15818     15821     15822     15815     15818     15821     15823
     15815     15818     15821     15824     15816     15815     15818     15819
     15816     15815     15818     15820     15816     15815     15818     15821
     15817     15815     15818     15819     15817     15815     15818     15820
     15817     15815     15818     15821     15818     15821     15824     15825
     15818     15821     15824     15826     15819     15818     15821     15822
     15819     15818     15821     15823     15819     15818     15821     15824
     15820     15818     15821     15822     15820     15818     15821     15823
     15820     15818     15821     15824     15821     15824     15826     15827
     15821     15824     15826     15828     15822     15821     15824     15825
     15822     15821     15824     15826     15823     15821     15824     15825
     15823     15821     15824     15826     15824     15826     15828     15829
     15824     15826     15828     15830     15824     15826     15828     15831
     15825     15824     15826     15827     15825     15824     15826     15828
     15826     15828     15831     15832     15826     15828     15831     15833
     15826     15828     15831     15834     15827     15826     15828     15829
     15827     15826     15828     15830     15827     15826     15828     15831
     15828     15831     15834     15835     15828     15831     15834     15836
     15828     15831     15834     15837     15829     15828     15831     15832
     15829     15828     15831     15833     15829     15828     15831     15834
     15830     15828     15831     15832     15830     15828     15831     15833
     15830     15828     15831     15834     15831     15834     15837     15838
     15831     15834     15837     15839     15831     15834     15837     15840
     15832     15831     15834     15835     15832     15831     15834     15836
     15832     15831     15834     15837     15833     15831     15834     15835
     15833     15831     15834     15836     15833     15831     15834     15837
     15834     15837     15840     15841     15834     15837     15840     15842
     15834     15837     15840     15843     15835     15834     15837     15838
     15835     15834     15837     15839     15835     15834     15837     15840
     15836     15834     15837     15838     15836     15834     15837     15839
     15836     15834     15837     15840     15837     15840     15843     15844
     15837     15840     15843     15845     15837     15840     15843     15846
     15838     15837     15840     15841     15838     15837     15840     15842
     15838     15837     15840     15843     15839     15837     15840     15841
     15839     15837     15840     15842     15839     15837     15840     15843
     15840     15843     15846     15847     15840     15843     15846     15848
     15840     15843     15846     15849     15841     15840     15843     15844
     15841     15840     15843     15845     15841     15840     15843     15846
     15842     15840     15843     15844     15842     15840     15843     15845
     15842     15840     15843     15846     15843     15846     15849     15850
     15843     15846     15849     15851     15843     15846     15849     15852
     15844     15843     15846     15847     15844     15843     15846     15848
     15844     15843     15846     15849     15845     15843     15846     15847
     15845     15843     15846     15848     15845     15843     15846     15849
     15847     15846     15849     15850     15847     15846     15849     15851
     15847     15846     15849     15852     15848     15846     15849     15850
     15848     15846     15849     15851     15848     15846     15849     15852
     15853     15856     15859     15860     15853     15856     15859     15861
     15853     15856     15859     15862     15854     15853     15856     15857
     15854     15853     15856     15858     15854     15853     15856     15859
     15855     15853     15856     15857     15855     15853     15856     15858
     15855     15853     15856     15859     15856     15859     15862     15863
     15856     15859     15862     15864     15856     15859     15862     15865
     15857     15856     15859     15860     15857     15856     15859     15861
     15857     15856     15859     15862     15858     15856     15859     15860
     15858     15856     15859     15861     15858     15856     15859     15862
     15859     15862     15865     15866     15859     15862     15865     15867
     15859     15862     15865     15868     15860     15859     15862     15863
     15860     15859     15862     15864     15860     15859     15862     15865
     15861     15859     15862     15863     15861     15859     15862     15864
     15861     15859     15862     15865     15862     15865     15868     15869
     15862     15865     15868     15870     15862     15865     15868     15871
     15863     15862     15865     15866     15863     15862     15865     15867
     15863     15862     15865     15868     15864     15862     15865     15866
     15864     15862     15865     15867     15864     15862     15865     15868
     15865     15868     15871     15872     15865     15868     15871     15873
     15865     15868     15871     15874     15866     15865     15868     15869
     15866     15865     15868     15870     15866     15865     15868     15871
     15867     15865     15868     15869     15867     15865     15868     15870
     15867     15865     15868     15871     15868     15871     15874     15875
     15868     15871     15874     15876     15868     15871     15874     15877
     15869     15868     15871     15872     15869     15868     15871     15873
     15869     15868     15871     15874     15870     15868     15871     15872
     15870     15868     15871     15873     15870     15868     15871     15874
     15871     15874     15877     15878     15871     15874     15877     15879
     15871     15874     15877     15880     15872     15871     15874     15875
     15872     15871     15874     15876     15872     15871     15874     15877
     15873     15871     15874     15875     15873     15871     15874     15876
     15873     15871     15874     15877     15874     15877     15880     15881
     15874     15877     15880     15882     15874     15877     15880     15883
     15875     15874     15877     15878     15875     15874     15877     15879
     15875     15874     15877     15880     15876     15874     15877     15878
     15876     15874     15877     15879     15876     15874     15877     15880
     15877     15880     15883     15884     15877     15880     15883     15885
     15877     15880     15883     15886     15878     15877     15880     15881
     15878     15877     15880     15882     15878     15877     15880     15883
     15879     15877     15880     15881     15879     15877     15880     15882
     15879     15877     15880     15883     15880     15883     15886     15887
     15880     15883     15886     15888     15880     15883     15886     15889
     15881     15880     15883     15884     15881     15880     15883     15885
     15881     15880     15883     15886     15882     15880     15883     15884
     15882     15880     15883     15885     15882     15880     15883     15886
     15883     15886     15889     15890     15883     15886     15889     15891
     15883     15886     15889     15892     15884     15883     15886     15887
     15884     15883     15886     15888     15884     15883     15886     15889
     15885     15883     15886     15887     15885     15883     15886     15888
     15885     15883     15886     15889     15886     15889     15892     15893
     15886     15889     15892     15894     15886     15889     15892     15895
     15887     15886     15889     15890     15887     15886     15889     15891
     15887     15886     15889     15892     15888     15886     15889     15890
     15888     15886     15889     15891     15888     15886     15889     15892
     15889     15892     15895     15896     15889     15892     15895     15897
     15889     15892     15895     15898     15890     15889     15892     15893
     15890     15889     15892     15894     15890     15889     15892     15895
     15891     15889     15892     15893     15891     15889     15892     15894
     15891     15889     15892     15895     15892     15895     15898     15899
     15892     15895     15898     15900     15892     15895     15898     15901
     15893     15892     15895     15896     15893     15892     15895     15897
     15893     15892     15895     15898     15894     15892     15895     15896
     15894     15892     15895     15897     15894     15892     15895     15898
     15896     15895     15898     15899     15896     15895     15898     15900
     15896     15895     15898     15901     15897     15895     15898     15899
     15897     15895     15898     15900     15897     15895     15898     15901
     15902     15915     15918     15919     15902     15915     15918     15920
     15902     15915     15918     15925     15903     15902     15907     15908
     15903     15902     15907     15909     15903     15902     15907     15910
     15903     15902     15911     15912     15903     15902     15911     15913
     15903     15902     15911     15914     15903     15902     15915     15916
     15903     15902     15915     15917     15903     15902     15915     15918
     15904     15903     15902     15907     15904     15903     15902     15911
     15904     15903     15902     15915     15905     15903     15902     15907
     15905     15903     15902     15911     15905     15903     15902     15915
     15906     15903     15902     15907     15906     15903     15902     15911
     15906     15903     15902     15915     15907     15902     15911     15912
     15907     15902     15911     15913     15907     15902     15911     15914
     15907     15902     15915     15916     15907     15902     15915     15917
     15907     15902     15915     15918     15908     15907     15902     15911
     15908     15907     15902     15915     15909     15907     15902     15911
     15909     15907     15902     15915     15910     15907     15902     15911
     15910     15907     15902     15915     15911     15902     15915     15916
     15911     15902     15915     15917     15911     15902     15915     15918
     15912     15911     15902     15915     15913     15911     15902     15915
     15914     15911     15902     15915     15915     15918     15925     15921
     15916     15915     15918     15919     15916     15915     15918     15920
     15916     15915     15918     15925     15917     15915     15918     15919
     15917     15915     15918     15920     15917     15915     15918     15925
     15918     15925     15921     15922     15918     15925     15921     15923
     15918     15925     15921     15924     15919     15918     15925     15921
     15920     15918     15925     15921     15921     15924     15926     15927
     15921     15924     15926     15928     15921     15924     15926     15931
     15922     15921     15924     15926     15923     15921     15924     15926
     15924     15926     15931     15929     15924     15926     15931     15932
     15924     15926     15931     15933     15925     15921     15924     15926
     15926     15931     15929     15930     15926     15931     15929     15981
     15926     15931     15933     15934     15926     15931     15933     15935
     15926     15931     15933     15937     15927     15926     15931     15929
     15927     15926     15931     15932     15927     15926     15931     15933
     15928     15926     15931     15929     15928     15926     15931     15932
     15928     15926     15931     15933     15929     15931     15933     15934
     15929     15931     15933     15935     15929     15931     15933     15937
     15929     15981     15983     15984     15929     15981     15983     15985
     15929     15981     15983     15986     15930     15929     15931     15932
     15930     15929     15931     15933     15930     15929     15981     15982
     15930     15929     15981     15983     15931     15929     15981     15982
     15931     15929     15981     15983     15931     15933     15935     15936
     15931     15933     15937     15938     15931     15933     15937     15939
     15932     15931     15929     15981     15932     15931     15933     15934
     15932     15931     15933     15935     15932     15931     15933     15937
     15933     15931     15929     15981     15933     15937     15939     15940
     15933     15937     15939     15941     15934     15933     15935     15936
     15934     15933     15937     15938     15934     15933     15937     15939
     15935     15933     15937     15938     15935     15933     15937     15939
     15936     15935     15933     15937     15937     15939     15941     15942
     15937     15939     15941     15943     15937     15939     15941     15944
     15938     15937     15939     15940     15938     15937     15939     15941
     15939     15941     15944     15945     15939     15941     15944     15946
     15939     15941     15944     15947     15940     15939     15941     15942
     15940     15939     15941     15943     15940     15939     15941     15944
     15941     15944     15947     15948     15941     15944     15947     15949
     15941     15944     15947     15950     15942     15941     15944     15945
     15942     15941     15944     15946     15942     15941     15944     15947
     15943     15941     15944     15945     15943     15941     15944     15946
     15943     15941     15944     15947     15944     15947     15950     15951
     15944     15947     15950     15952     15944     15947     15950     15953
     15945     15944     15947     15948     15945     15944     15947     15949
     15945     15944     15947     15950     15946     15944     15947     15948
     15946     15944     15947     15949     15946     15944     15947     15950
     15947     15950     15953     15954     15947     15950     15953     15955
     15947     15950     15953     15956     15948     15947     15950     15951
     15948     15947     15950     15952     15948     15947     15950     15953
     15949     15947     15950     15951     15949     15947     15950     15952
     15949     15947     15950     15953     15950     15953     15956     15957
     15950     15953     15956     15958     15950     15953     15956     15959
     15951     15950     15953     15954     15951     15950     15953     15955
     15951     15950     15953     15956     15952     15950     15953     15954
     15952     15950     15953     15955     15952     15950     15953     15956
     15953     15956     15959     15960     15953     15956     15959     15961
     15953     15956     15959     15962     15954     15953     15956     15957
     15954     15953     15956     15958     15954     15953     15956     15959
     15955     15953     15956     15957     15955     15953     15956     15958
     15955     15953     15956     15959     15956     15959     15962     15963
     15956     15959     15962     15964     15956     15959     15962     15965
     15957     15956     15959     15960     15957     15956     15959     15961
     15957     15956     15959     15962     15958     15956     15959     15960
     15958     15956     15959     15961     15958     15956     15959     15962
     15959     15962     15965     15966     15959     15962     15965     15967
     15959     15962     15965     15968     15960     15959     15962     15963
     15960     15959     15962     15964     15960     15959     15962     15965
     15961     15959     15962     15963     15961     15959     15962     15964
     15961     15959     15962     15965     15962     15965     15968     15969
     15962     15965     15968     15970     15962     15965     15968     15971
     15963     15962     15965     15966     15963     15962     15965     15967
     15963     15962     15965     15968     15964     15962     15965     15966
     15964     15962     15965     15967     15964     15962     15965     15968
     15965     15968     15971     15972     15965     15968     15971     15973
     15965     15968     15971     15974     15966     15965     15968     15969
     15966     15965     15968     15970     15966     15965     15968     15971
     15967     15965     15968     15969     15967     15965     15968     15970
     15967     15965     15968     15971     15968     15971     15974     15975
     15968     15971     15974     15976     15968     15971     15974     15977
     15969     15968     15971     15972     15969     15968     15971     15973
     15969     15968     15971     15974     15970     15968     15971     15972
     15970     15968     15971     15973     15970     15968     15971     15974
     15971     15974     15977     15978     15971     15974     15977     15979
     15971     15974     15977     15980     15972     15971     15974     15975
     15972     15971     15974     15976     15972     15971     15974     15977
     15973     15971     15974     15975     15973     15971     15974     15976
     15973     15971     15974     15977     15975     15974     15977     15978
     15975     15974     15977     15979     15975     15974     15977     15980
     15976     15974     15977     15978     15976     15974     15977     15979
     15976     15974     15977     15980     15981     15983     15986     15987
     15981     15983     15986     15988     15981     15983     15986     15989
     15982     15981     15983     15984     15982     15981     15983     15985
     15982     15981     15983     15986     15983     15986     15989     15990
     15983     15986     15989     15991     15983     15986     15989     15992
     15984     15983     15986     15987     15984     15983     15986     15988
     15984     15983     15986     15989     15985     15983     15986     15987
     15985     15983     15986     15988     15985     15983     15986     15989
     15986     15989     15992     15993     15986     15989     15992     15994
     15986     15989     15992     15995     15987     15986     15989     15990
     15987     15986     15989     15991     15987     15986     15989     15992
     15988     15986     15989     15990     15988     15986     15989     15991
     15988     15986     15989     15992     15989     15992     15995     15996
     15989     15992     15995     15997     15989     15992     15995     15998
     15990     15989     15992     15993     15990     15989     15992     15994
     15990     15989     15992     15995     15991     15989     15992     15993
     15991     15989     15992     15994     15991     15989     15992     15995
     15992     15995     15998     15999     15992     15995     15998     16000
     15992     15995     15998     16001     15993     15992     15995     15996
     15993     15992     15995     15997     15993     15992     15995     15998
     15994     15992     15995     15996     15994     15992     15995     15997
     15994     15992     15995     15998     15995     15998     16001     16002
     15995     15998     16001     16003     15995     15998     16001     16004
     15996     15995     15998     15999     15996     15995     15998     16000
     15996     15995     15998     16001     15997     15995     15998     15999
     15997     15995     15998     16000     15997     15995     15998     16001
     15998     16001     16004     16005     15998     16001     16004     16006
     15999     15998     16001     16002     15999     15998     16001     16003
     15999     15998     16001     16004     16000     15998     16001     16002
     16000     15998     16001     16003     16000     15998     16001     16004
     16001     16004     16006     16007     16001     16004     16006     16008
     16002     16001     16004     16005     16002     16001     16004     16006
     16003     16001     16004     16005     16003     16001     16004     16006
     16004     16006     16008     16009     16004     16006     16008     16010
     16004     16006     16008     16011     16005     16004     16006     16007
     16005     16004     16006     16008     16006     16008     16011     16012
     16006     16008     16011     16013     16006     16008     16011     16014
     16007     16006     16008     16009     16007     16006     16008     16010
     16007     16006     16008     16011     16008     16011     16014     16015
     16008     16011     16014     16016     16008     16011     16014     16017
     16009     16008     16011     16012     16009     16008     16011     16013
     16009     16008     16011     16014     16010     16008     16011     16012
     16010     16008     16011     16013     16010     16008     16011     16014
     16011     16014     16017     16018     16011     16014     16017     16019
     16011     16014     16017     16020     16012     16011     16014     16015
     16012     16011     16014     16016     16012     16011     16014     16017
     16013     16011     16014     16015     16013     16011     16014     16016
     16013     16011     16014     16017     16014     16017     16020     16021
     16014     16017     16020     16022     16014     16017     16020     16023
     16015     16014     16017     16018     16015     16014     16017     16019
     16015     16014     16017     16020     16016     16014     16017     16018
     16016     16014     16017     16019     16016     16014     16017     16020
     16017     16020     16023     16024     16017     16020     16023     16025
     16017     16020     16023     16026     16018     16017     16020     16021
     16018     16017     16020     16022     16018     16017     16020     16023
     16019     16017     16020     16021     16019     16017     16020     16022
     16019     16017     16020     16023     16020     16023     16026     16027
     16020     16023     16026     16028     16020     16023     16026     16029
     16021     16020     16023     16024     16021     16020     16023     16025
     16021     16020     16023     16026     16022     16020     16023     16024
     16022     16020     16023     16025     16022     16020     16023     16026
     16023     16026     16029     16030     16023     16026     16029     16031
     16023     16026     16029     16032     16024     16023     16026     16027
     16024     16023     16026     16028     16024     16023     16026     16029
     16025     16023     16026     16027     16025     16023     16026     16028
     16025     16023     16026     16029     16027     16026     16029     16030
     16027     16026     16029     16031     16027     16026     16029     16032
     16028     16026     16029     16030     16028     16026     16029     16031
     16028     16026     16029     16032     16033     16037     16040     16041
     16033     16037     16040     16071     16033     16079     16076     16071
     16033     16079     16076     16077     16033     16079     16076     16078
     16034     16033     16035     16036     16034     16033     16037     16038
     16034     16033     16037     16039     16034     16033     16037     16040
     16034     16033     16079     16076     16034     16033     16079     16080
     16034     16033     16079     16081     16035     16033     16037     16038
     16035     16033     16037     16039     16035     16033     16037     16040
     16035     16033     16079     16076     16035     16033     16079     16080
     16035     16033     16079     16081     16036     16035     16033     16037
     16036     16035     16033     16079     16037     16033     16079     16076
     16037     16033     16079     16080     16037     16033     16079     16081
     16037     16040     16041     16042     16037     16040     16041     16043
     16037     16040     16071     16069     16037     16040     16071     16072
     16037     16040     16071     16076     16038     16037     16033     16079
     16038     16037     16040     16041     16038     16037     16040     16071
     16039     16037     16033     16079     16039     16037     16040     16041
     16039     16037     16040     16071     16040     16037     16033     16079
     16040     16041     16043     16044     16040     16041     16043     16045
     16040     16041     16043     16046     16040     16071     16069     16046
     16040     16071     16069     16066     16040     16071     16069     16070
     16040     16071     16072     16073     16040     16071     16072     16074
     16040     16071     16072     16075     16040     16071     16076     16077
     16040     16071     16076     16078     16040     16071     16076     16079
     16041     16040     16071     16069     16041     16040     16071     16072
     16041     16040     16071     16076     16041     16043     16046     16047
     16041     16043     16046     16048     16041     16043     16046     16069
     16042     16041     16040     16071     16042     16041     16043     16044
     16042     16041     16043     16045     16042     16041     16043     16046
     16043     16041     16040     16071     16043     16046     16048     16049
     16043     16046     16048     16050     16043     16046     16048     16058
     16043     16046     16069     16066     16043     16046     16069     16070
     16043     16046     16069     16071     16044     16043     16046     16047
     16044     16043     16046     16048     16044     16043     16046     16069
     16045     16043     16046     16047     16045     16043     16046     16048
     16045     16043     16046     16069     16046     16048     16050     16051
     16046     16048     16050     16052     16046     16048     16050     16053
     16046     16048     16058     16056     16046     16048     16058     16059
     16046     16048     16058     16063     16046     16069     16066     16063
     16046     16069     16066     16067     16046     16069     16066     16068
     16046     16069     16071     16072     16046     16069     16071     16076
     16047     16046     16048     16049     16047     16046     16048     16050
     16047     16046     16048     16058     16047     16046     16069     16066
     16047     16046     16069     16070     16047     16046     16069     16071
     16048     16046     16069     16066     16048     16046     16069     16070
     16048     16046     16069     16071     16048     16050     16053     16054
     16048     16050     16053     16055     16048     16050     16053     16056
     16048     16058     16056     16053     16048     16058     16056     16057
     16048     16058     16056     16082     16048     16058     16059     16060
     16048     16058     16059     16061     16048     16058     16059     16062
     16048     16058     16063     16064     16048     16058     16063     16065
     16048     16058     16063     16066     16049     16048     16046     16069
     16049     16048     16050     16051     16049     16048     16050     16052
     16049     16048     16050     16053     16049     16048     16058     16056
     16049     16048     16058     16059     16049     16048     16058     16063
     16050     16048     16046     16069     16050     16048     16058     16056
     16050     16048     16058     16059     16050     16048     16058     16063
     16050     16053     16056     16057     16050     16053     16056     16058
     16050     16053     16056     16082     16051     16050     16048     16058
     16051     16050     16053     16054     16051     16050     16053     16055
     16051     16050     16053     16056     16052     16050     16048     16058
     16052     16050     16053     16054     16052     16050     16053     16055
     16052     16050     16053     16056     16053     16050     16048     16058
     16053     16056     16058     16059     16053     16056     16058     16063
     16053     16056     16082     16083     16053     16056     16082     16084
     16053     16056     16082     16088     16054     16053     16056     16057
     16054     16053     16056     16058     16054     16053     16056     16082
     16055     16053     16056     16057     16055     16053     16056     16058
     16055     16053     16056     16082     16056     16058     16059     16060
     16056     16058     16059     16061     16056     16058     16059     16062
     16056     16058     16063     16064     16056     16058     16063     16065
     16056     16058     16063     16066     16056     16082     16084     16085
     16056     16082     16084     16086     16056     16082     16084     16087
     16056     16082     16088     16089     16056     16082     16088     16090
     16056     16082     16088     16091     16057     16056     16058     16059
     16057     16056     16058     16063     16057     16056     16082     16083
     16057     16056     16082     16084     16057     16056     16082     16088
     16058     16048     16046     16069     16058     16056     16082     16083
     16058     16056     16082     16084     16058     16056     16082     16088
     16058     16063     16066     16067     16058     16063     16066     16068
     16058     16063     16066     16069     16059     16058     16056     16082
     16059     16058     16063     16064     16059     16058     16063     16065
     16059     16058     16063     16066     16060     16059     16058     16063
     16061     16059     16058     16063     16062     16059     16058     16063
     16063     16058     16056     16082     16063     16066     16069     16070
     16063     16066     16069     16071     16064     16063     16066     16067
     16064     16063     16066     16068     16064     16063     16066     16069
     16065     16063     16066     16067     16065     16063     16066     16068
     16065     16063     16066     16069     16066     16069     16071     16072
     16066     16069     16071     16076     16067     16066     16069     16070
     16067     16066     16069     16071     16068     16066     16069     16070
     16068     16066     16069     16071     16069     16071     16072     16073
     16069     16071     16072     16074     16069     16071     16072     16075
     16069     16071     16076     16077     16069     16071     16076     16078
     16069     16071     16076     16079     16070     16069     16071     16072
     16070     16069     16071     16076     16071     16076     16079     16080
     16071     16076     16079     16081     16072     16071     16076     16077
     16072     16071     16076     16078     16072     16071     16076     16079
     16073     16072     16071     16076     16074     16072     16071     16076
     16075     16072     16071     16076     16077     16076     16079     16080
     16077     16076     16079     16081     16078     16076     16079     16080
     16078     16076     16079     16081     16082     16088     16091     16092
     16082     16088     16091     16093     16082     16088     16091     16094
     16083     16082     16084     16085     16083     16082     16084     16086
     16083     16082     16084     16087     16083     16082     16088     16089
     16083     16082     16088     16090     16083     16082     16088     16091
     16084     16082     16088     16089     16084     16082     16088     16090
     16084     16082     16088     16091     16085     16084     16082     16088
     16086     16084     16082     16088     16087     16084     16082     16088
     16088     16091     16094     16095     16088     16091     16094     16096
     16088     16091     16094     16097     16089     16088     16091     16092
     16089     16088     16091     16093     16089     16088     16091     16094
     16090     16088     16091     16092     16090     16088     16091     16093
     16090     16088     16091     16094     16091     16094     16097     16098
     16091     16094     16097     16099     16091     16094     16097     16103
     16092     16091     16094     16095     16092     16091     16094     16096
     16092     16091     16094     16097     16093     16091     16094     16095
     16093     16091     16094     16096     16093     16091     16094     16097
     16094     16097     16099     16100     16094     16097     16099     16101
     16094     16097     16099     16102     16094     16097     16103     16104
     16094     16097     16103     16105     16094     16097     16103     16106
     16095     16094     16097     16098     16095     16094     16097     16099
     16095     16094     16097     16103     16096     16094     16097     16098
     16096     16094     16097     16099     16096     16094     16097     16103
     16098     16097     16099     16100     16098     16097     16099     16101
     16098     16097     16099     16102     16098     16097     16103     16104
     16098     16097     16103     16105     16098     16097     16103     16106
     16099     16097     16103     16104     16099     16097     16103     16105
     16099     16097     16103     16106     16100     16099     16097     16103
     16101     16099     16097     16103     16102     16099     16097     16103
     16107     16111     16114     16115     16107     16111     16114     16145
     16107     16153     16150     16145     16107     16153     16150     16151
     16107     16153     16150     16152     16108     16107     16109     16110
     16108     16107     16111     16112     16108     16107     16111     16113
     16108     16107     16111     16114     16108     16107     16153     16150
     16108     16107     16153     16154     16108     16107     16153     16155
     16109     16107     16111     16112     16109     16107     16111     16113
     16109     16107     16111     16114     16109     16107     16153     16150
     16109     16107     16153     16154     16109     16107     16153     16155
     16110     16109     16107     16111     16110     16109     16107     16153
     16111     16107     16153     16150     16111     16107     16153     16154
     16111     16107     16153     16155     16111     16114     16115     16116
     16111     16114     16115     16117     16111     16114     16145     16143
     16111     16114     16145     16146     16111     16114     16145     16150
     16112     16111     16107     16153     16112     16111     16114     16115
     16112     16111     16114     16145     16113     16111     16107     16153
     16113     16111     16114     16115     16113     16111     16114     16145
     16114     16111     16107     16153     16114     16115     16117     16118
     16114     16115     16117     16119     16114     16115     16117     16120
     16114     16145     16143     16120     16114     16145     16143     16140
     16114     16145     16143     16144     16114     16145     16146     16147
     16114     16145     16146     16148     16114     16145     16146     16149
     16114     16145     16150     16151     16114     16145     16150     16152
     16114     16145     16150     16153     16115     16114     16145     16143
     16115     16114     16145     16146     16115     16114     16145     16150
     16115     16117     16120     16121     16115     16117     16120     16122
     16115     16117     16120     16143     16116     16115     16114     16145
     16116     16115     16117     16118     16116     16115     16117     16119
     16116     16115     16117     16120     16117     16115     16114     16145
     16117     16120     16122     16123     16117     16120     16122     16124
     16117     16120     16122     16132     16117     16120     16143     16140
     16117     16120     16143     16144     16117     16120     16143     16145
     16118     16117     16120     16121     16118     16117     16120     16122
     16118     16117     16120     16143     16119     16117     16120     16121
     16119     16117     16120     16122     16119     16117     16120     16143
     16120     16122     16124     16125     16120     16122     16124     16126
     16120     16122     16124     16127     16120     16122     16132     16130
     16120     16122     16132     16133     16120     16122     16132     16137
     16120     16143     16140     16137     16120     16143     16140     16141
     16120     16143     16140     16142     16120     16143     16145     16146
     16120     16143     16145     16150     16121     16120     16122     16123
     16121     16120     16122     16124     16121     16120     16122     16132
     16121     16120     16143     16140     16121     16120     16143     16144
     16121     16120     16143     16145     16122     16120     16143     16140
     16122     16120     16143     16144     16122     16120     16143     16145
     16122     16124     16127     16128     16122     16124     16127     16129
     16122     16124     16127     16130     16122     16132     16130     16127
     16122     16132     16130     16131     16122     16132     16130     16156
     16122     16132     16133     16134     16122     16132     16133     16135
     16122     16132     16133     16136     16122     16132     16137     16138
     16122     16132     16137     16139     16122     16132     16137     16140
     16123     16122     16120     16143     16123     16122     16124     16125
     16123     16122     16124     16126     16123     16122     16124     16127
     16123     16122     16132     16130     16123     16122     16132     16133
     16123     16122     16132     16137     16124     16122     16120     16143
     16124     16122     16132     16130     16124     16122     16132     16133
     16124     16122     16132     16137     16124     16127     16130     16131
     16124     16127     16130     16132     16124     16127     16130     16156
     16125     16124     16122     16132     16125     16124     16127     16128
     16125     16124     16127     16129     16125     16124     16127     16130
     16126     16124     16122     16132     16126     16124     16127     16128
     16126     16124     16127     16129     16126     16124     16127     16130
     16127     16124     16122     16132     16127     16130     16132     16133
     16127     16130     16132     16137     16127     16130     16156     16157
     16127     16130     16156     16158     16127     16130     16156     16162
     16128     16127     16130     16131     16128     16127     16130     16132
     16128     16127     16130     16156     16129     16127     16130     16131
     16129     16127     16130     16132     16129     16127     16130     16156
     16130     16132     16133     16134     16130     16132     16133     16135
     16130     16132     16133     16136     16130     16132     16137     16138
     16130     16132     16137     16139     16130     16132     16137     16140
     16130     16156     16158     16159     16130     16156     16158     16160
     16130     16156     16158     16161     16130     16156     16162     16163
     16130     16156     16162     16164     16130     16156     16162     16165
     16131     16130     16132     16133     16131     16130     16132     16137
     16131     16130     16156     16157     16131     16130     16156     16158
     16131     16130     16156     16162     16132     16122     16120     16143
     16132     16130     16156     16157     16132     16130     16156     16158
     16132     16130     16156     16162     16132     16137     16140     16141
     16132     16137     16140     16142     16132     16137     16140     16143
     16133     16132     16130     16156     16133     16132     16137     16138
     16133     16132     16137     16139     16133     16132     16137     16140
     16134     16133     16132     16137     16135     16133     16132     16137
     16136     16133     16132     16137     16137     16132     16130     16156
     16137     16140     16143     16144     16137     16140     16143     16145
     16138     16137     16140     16141     16138     16137     16140     16142
     16138     16137     16140     16143     16139     16137     16140     16141
     16139     16137     16140     16142     16139     16137     16140     16143
     16140     16143     16145     16146     16140     16143     16145     16150
     16141     16140     16143     16144     16141     16140     16143     16145
     16142     16140     16143     16144     16142     16140     16143     16145
     16143     16145     16146     16147     16143     16145     16146     16148
     16143     16145     16146     16149     16143     16145     16150     16151
     16143     16145     16150     16152     16143     16145     16150     16153
     16144     16143     16145     16146     16144     16143     16145     16150
     16145     16150     16153     16154     16145     16150     16153     16155
     16146     16145     16150     16151     16146     16145     16150     16152
     16146     16145     16150     16153     16147     16146     16145     16150
     16148     16146     16145     16150     16149     16146     16145     16150
     16151     16150     16153     16154     16151     16150     16153     16155
     16152     16150     16153     16154     16152     16150     16153     16155
     16156     16162     16165     16166     16156     16162     16165     16167
     16156     16162     16165     16168     16157     16156     16158     16159
     16157     16156     16158     16160     16157     16156     16158     16161
     16157     16156     16162     16163     16157     16156     16162     16164
     16157     16156     16162     16165     16158     16156     16162     16163
     16158     16156     16162     16164     16158     16156     16162     16165
     16159     16158     16156     16162     16160     16158     16156     16162
     16161     16158     16156     16162     16162     16165     16168     16169
     16162     16165     16168     16170     16162     16165     16168     16171
     16163     16162     16165     16166     16163     16162     16165     16167
     16163     16162     16165     16168     16164     16162     16165     16166
     16164     16162     16165     16167     16164     16162     16165     16168
     16165     16168     16171     16172     16165     16168     16171     16173
     16165     16168     16171     16177     16166     16165     16168     16169
     16166     16165     16168     16170     16166     16165     16168     16171
     16167     16165     16168     16169     16167     16165     16168     16170
     16167     16165     16168     16171     16168     16171     16173     16174
     16168     16171     16173     16175     16168     16171     16173     16176
     16168     16171     16177     16178     16168     16171     16177     16179
     16168     16171     16177     16180     16169     16168     16171     16172
     16169     16168     16171     16173     16169     16168     16171     16177
     16170     16168     16171     16172     16170     16168     16171     16173
     16170     16168     16171     16177     16172     16171     16173     16174
     16172     16171     16173     16175     16172     16171     16173     16176
     16172     16171     16177     16178     16172     16171     16177     16179
     16172     16171     16177     16180     16173     16171     16177     16178
     16173     16171     16177     16179     16173     16171     16177     16180
     16174     16173     16171     16177     16175     16173     16171     16177
     16176     16173     16171     16177     16181     16185     16187     16188
     16181     16185     16187     16189     16181     16185     16190     16191
     16181     16185     16190     16192     16181     16185     16190     16196
     16182     16181     16185     16186     16182     16181     16185     16187
     16182     16181     16185     16190     16183     16181     16185     16186
     16183     16181     16185     16187     16183     16181     16185     16190
     16184     16181     16185     16186     16184     16181     16185     16187
     16184     16181     16185     16190     16185     16190     16196     16193
     16186     16185     16187     16188     16186     16185     16187     16189
     16186     16185     16190     16191     16186     16185     16190     16192
     16186     16185     16190     16196     16187     16185     16190     16191
     16187     16185     16190     16192     16187     16185     16190     16196
     16188     16187     16185     16190     16189     16187     16185     16190
     16190     16196     16193     16194     16190     16196     16193     16195
     16190     16196     16193     16197     16191     16190     16196     16193
     16192     16190     16196     16193     16193     16197     16198     16199
     16193     16197     16198     16200     16193     16197     16198     16201
     16194     16193     16197     16198     16195     16193     16197     16198
     16196     16193     16197     16198     16197     16198     16201     16202
     16197     16198     16201     16203     16197     16198     16201     16209
     16198     16201     16203     16204     16198     16201     16209     16210
     16198     16201     16209     16211     16198     16201     16209     16212
     16199     16198     16201     16202     16199     16198     16201     16203
     16199     16198     16201     16209     16200     16198     16201     16202
     16200     16198     16201     16203     16200     16198     16201     16209
     16201     16203     16204     16205     16201     16203     16204     16206
     16201     16209     16212     16213     16202     16201     16203     16204
     16202     16201     16209     16210     16202     16201     16209     16211
     16202     16201     16209     16212     16203     16201     16209     16210
     16203     16201     16209     16211     16203     16201     16209     16212
     16203     16204     16206     16207     16203     16204     16206     16208
     16203     16204     16206     16218     16204     16203     16201     16209
     16204     16206     16218     16219     16204     16206     16218     16220
     16204     16206     16218     16221     16205     16204     16206     16207
     16205     16204     16206     16208     16205     16204     16206     16218
     16206     16218     16221     16222     16206     16218     16221     16223
     16206     16218     16221     16224     16207     16206     16218     16219
     16207     16206     16218     16220     16207     16206     16218     16221
     16208     16206     16218     16219     16208     16206     16218     16220
     16208     16206     16218     16221     16209     16212     16213     16214
     16209     16212     16213     16215     16210     16209     16212     16213
     16211     16209     16212     16213     16212     16213     16215     16216
     16212     16213     16215     16217     16212     16213     16215     16265
     16213     16215     16265     16266     16213     16215     16265     16267
     16213     16215     16265     16268     16214     16213     16215     16216
     16214     16213     16215     16217     16214     16213     16215     16265
     16215     16265     16268     16269     16215     16265     16268     16270
     16215     16265     16268     16271     16216     16215     16265     16266
     16216     16215     16265     16267     16216     16215     16265     16268
     16217     16215     16265     16266     16217     16215     16265     16267
     16217     16215     16265     16268     16218     16221     16224     16225
     16218     16221     16224     16226     16219     16218     16221     16222
     16219     16218     16221     16223     16219     16218     16221     16224
     16220     16218     16221     16222     16220     16218     16221     16223
     16220     16218     16221     16224     16221     16224     16226     16227
     16221     16224     16226     16228     16222     16221     16224     16225
     16222     16221     16224     16226     16223     16221     16224     16225
     16223     16221     16224     16226     16224     16226     16228     16229
     16224     16226     16228     16230     16224     16226     16228     16231
     16225     16224     16226     16227     16225     16224     16226     16228
     16226     16228     16231     16232     16226     16228     16231     16233
     16227     16226     16228     16229     16227     16226     16228     16230
     16227     16226     16228     16231     16228     16231     16233     16234
     16228     16231     16233     16235     16229     16228     16231     16232
     16229     16228     16231     16233     16230     16228     16231     16232
     16230     16228     16231     16233     16231     16233     16235     16236
     16231     16233     16235     16237     16231     16233     16235     16238
     16232     16231     16233     16234     16232     16231     16233     16235
     16233     16235     16238     16239     16233     16235     16238     16240
     16234     16233     16235     16236     16234     16233     16235     16237
     16234     16233     16235     16238     16235     16238     16240     16241
     16235     16238     16240     16242     16236     16235     16238     16239
     16236     16235     16238     16240     16237     16235     16238     16239
     16237     16235     16238     16240     16238     16240     16242     16243
     16238     16240     16242     16244     16238     16240     16242     16245
     16239     16238     16240     16241     16239     16238     16240     16242
     16240     16242     16245     16246     16240     16242     16245     16247
     16241     16240     16242     16243     16241     16240     16242     16244
     16241     16240     16242     16245     16242     16245     16247     16248
     16242     16245     16247     16249     16243     16242     16245     16246
     16243     16242     16245     16247     16244     16242     16245     16246
     16244     16242     16245     16247     16245     16247     16249     16250
     16245     16247     16249     16251     16245     16247     16249     16252
     16246     16245     16247     16248     16246     16245     16247     16249
     16247     16249     16252     16253     16247     16249     16252     16254
     16247     16249     16252     16255     16248     16247     16249     16250
     16248     16247     16249     16251     16248     16247     16249     16252
     16249     16252     16255     16256     16249     16252     16255     16257
     16249     16252     16255     16258     16250     16249     16252     16253
     16250     16249     16252     16254     16250     16249     16252     16255
     16251     16249     16252     16253     16251     16249     16252     16254
     16251     16249     16252     16255     16252     16255     16258     16259
     16252     16255     16258     16260     16252     16255     16258     16261
     16253     16252     16255     16256     16253     16252     16255     16257
     16253     16252     16255     16258     16254     16252     16255     16256
     16254     16252     16255     16257     16254     16252     16255     16258
     16255     16258     16261     16262     16255     16258     16261     16263
     16255     16258     16261     16264     16256     16255     16258     16259
     16256     16255     16258     16260     16256     16255     16258     16261
     16257     16255     16258     16259     16257     16255     16258     16260
     16257     16255     16258     16261     16259     16258     16261     16262
     16259     16258     16261     16263     16259     16258     16261     16264
     16260     16258     16261     16262     16260     16258     16261     16263
     16260     16258     16261     16264     16265     16268     16271     16272
     16265     16268     16271     16273     16265     16268     16271     16274
     16266     16265     16268     16269     16266     16265     16268     16270
     16266     16265     16268     16271     16267     16265     16268     16269
     16267     16265     16268     16270     16267     16265     16268     16271
     16268     16271     16274     16275     16268     16271     16274     16276
     16268     16271     16274     16277     16269     16268     16271     16272
     16269     16268     16271     16273     16269     16268     16271     16274
     16270     16268     16271     16272     16270     16268     16271     16273
     16270     16268     16271     16274     16271     16274     16277     16278
     16271     16274     16277     16279     16271     16274     16277     16280
     16272     16271     16274     16275     16272     16271     16274     16276
     16272     16271     16274     16277     16273     16271     16274     16275
     16273     16271     16274     16276     16273     16271     16274     16277
     16274     16277     16280     16281     16274     16277     16280     16282
     16274     16277     16280     16283     16275     16274     16277     16278
     16275     16274     16277     16279     16275     16274     16277     16280
     16276     16274     16277     16278     16276     16274     16277     16279
     16276     16274     16277     16280     16277     16280     16283     16284
     16277     16280     16283     16285     16277     16280     16283     16286
     16278     16277     16280     16281     16278     16277     16280     16282
     16278     16277     16280     16283     16279     16277     16280     16281
     16279     16277     16280     16282     16279     16277     16280     16283
     16280     16283     16286     16287     16280     16283     16286     16288
     16280     16283     16286     16289     16281     16280     16283     16284
     16281     16280     16283     16285     16281     16280     16283     16286
     16282     16280     16283     16284     16282     16280     16283     16285
     16282     16280     16283     16286     16283     16286     16289     16290
     16283     16286     16289     16291     16283     16286     16289     16292
     16284     16283     16286     16287     16284     16283     16286     16288
     16284     16283     16286     16289     16285     16283     16286     16287
     16285     16283     16286     16288     16285     16283     16286     16289
     16286     16289     16292     16293     16286     16289     16292     16294
     16286     16289     16292     16295     16287     16286     16289     16290
     16287     16286     16289     16291     16287     16286     16289     16292
     16288     16286     16289     16290     16288     16286     16289     16291
     16288     16286     16289     16292     16289     16292     16295     16296
     16289     16292     16295     16297     16289     16292     16295     16298
     16290     16289     16292     16293     16290     16289     16292     16294
     16290     16289     16292     16295     16291     16289     16292     16293
     16291     16289     16292     16294     16291     16289     16292     16295
     16292     16295     16298     16299     16292     16295     16298     16300
     16292     16295     16298     16301     16293     16292     16295     16296
     16293     16292     16295     16297     16293     16292     16295     16298
     16294     16292     16295     16296     16294     16292     16295     16297
     16294     16292     16295     16298     16295     16298     16301     16302
     16295     16298     16301     16303     16295     16298     16301     16304
     16296     16295     16298     16299     16296     16295     16298     16300
     16296     16295     16298     16301     16297     16295     16298     16299
     16297     16295     16298     16300     16297     16295     16298     16301
     16298     16301     16304     16305     16298     16301     16304     16306
     16298     16301     16304     16307     16299     16298     16301     16302
     16299     16298     16301     16303     16299     16298     16301     16304
     16300     16298     16301     16302     16300     16298     16301     16303
     16300     16298     16301     16304     16301     16304     16307     16308
     16301     16304     16307     16309     16301     16304     16307     16310
     16302     16301     16304     16305     16302     16301     16304     16306
     16302     16301     16304     16307     16303     16301     16304     16305
     16303     16301     16304     16306     16303     16301     16304     16307
     16304     16307     16310     16311     16304     16307     16310     16312
     16304     16307     16310     16313     16305     16304     16307     16308
     16305     16304     16307     16309     16305     16304     16307     16310
     16306     16304     16307     16308     16306     16304     16307     16309
     16306     16304     16307     16310     16308     16307     16310     16311
     16308     16307     16310     16312     16308     16307     16310     16313
     16309     16307     16310     16311     16309     16307     16310     16312
     16309     16307     16310     16313     16314     16327     16330     16331
     16314     16327     16330     16332     16314     16327     16330     16337
     16315     16314     16319     16320     16315     16314     16319     16321
     16315     16314     16319     16322     16315     16314     16323     16324
     16315     16314     16323     16325     16315     16314     16323     16326
     16315     16314     16327     16328     16315     16314     16327     16329
     16315     16314     16327     16330     16316     16315     16314     16319
     16316     16315     16314     16323     16316     16315     16314     16327
     16317     16315     16314     16319     16317     16315     16314     16323
     16317     16315     16314     16327     16318     16315     16314     16319
     16318     16315     16314     16323     16318     16315     16314     16327
     16319     16314     16323     16324     16319     16314     16323     16325
     16319     16314     16323     16326     16319     16314     16327     16328
     16319     16314     16327     16329     16319     16314     16327     16330
     16320     16319     16314     16323     16320     16319     16314     16327
     16321     16319     16314     16323     16321     16319     16314     16327
     16322     16319     16314     16323     16322     16319     16314     16327
     16323     16314     16327     16328     16323     16314     16327     16329
     16323     16314     16327     16330     16324     16323     16314     16327
     16325     16323     16314     16327     16326     16323     16314     16327
     16327     16330     16337     16333     16328     16327     16330     16331
     16328     16327     16330     16332     16328     16327     16330     16337
     16329     16327     16330     16331     16329     16327     16330     16332
     16329     16327     16330     16337     16330     16337     16333     16334
     16330     16337     16333     16335     16330     16337     16333     16336
     16331     16330     16337     16333     16332     16330     16337     16333
     16333     16336     16338     16339     16333     16336     16338     16340
     16333     16336     16338     16343     16334     16333     16336     16338
     16335     16333     16336     16338     16336     16338     16343     16341
     16336     16338     16343     16344     16336     16338     16343     16345
     16337     16333     16336     16338     16338     16343     16341     16342
     16338     16343     16341     16393     16338     16343     16345     16346
     16338     16343     16345     16347     16338     16343     16345     16349
     16339     16338     16343     16341     16339     16338     16343     16344
     16339     16338     16343     16345     16340     16338     16343     16341
     16340     16338     16343     16344     16340     16338     16343     16345
     16341     16343     16345     16346     16341     16343     16345     16347
     16341     16343     16345     16349     16341     16393     16395     16396
     16341     16393     16395     16397     16341     16393     16395     16398
     16342     16341     16343     16344     16342     16341     16343     16345
     16342     16341     16393     16394     16342     16341     16393     16395
     16343     16341     16393     16394     16343     16341     16393     16395
     16343     16345     16347     16348     16343     16345     16349     16350
     16343     16345     16349     16351     16344     16343     16341     16393
     16344     16343     16345     16346     16344     16343     16345     16347
     16344     16343     16345     16349     16345     16343     16341     16393
     16345     16349     16351     16352     16345     16349     16351     16353
     16346     16345     16347     16348     16346     16345     16349     16350
     16346     16345     16349     16351     16347     16345     16349     16350
     16347     16345     16349     16351     16348     16347     16345     16349
     16349     16351     16353     16354     16349     16351     16353     16355
     16349     16351     16353     16356     16350     16349     16351     16352
     16350     16349     16351     16353     16351     16353     16356     16357
     16351     16353     16356     16358     16351     16353     16356     16359
     16352     16351     16353     16354     16352     16351     16353     16355
     16352     16351     16353     16356     16353     16356     16359     16360
     16353     16356     16359     16361     16353     16356     16359     16362
     16354     16353     16356     16357     16354     16353     16356     16358
     16354     16353     16356     16359     16355     16353     16356     16357
     16355     16353     16356     16358     16355     16353     16356     16359
     16356     16359     16362     16363     16356     16359     16362     16364
     16356     16359     16362     16365     16357     16356     16359     16360
     16357     16356     16359     16361     16357     16356     16359     16362
     16358     16356     16359     16360     16358     16356     16359     16361
     16358     16356     16359     16362     16359     16362     16365     16366
     16359     16362     16365     16367     16359     16362     16365     16368
     16360     16359     16362     16363     16360     16359     16362     16364
     16360     16359     16362     16365     16361     16359     16362     16363
     16361     16359     16362     16364     16361     16359     16362     16365
     16362     16365     16368     16369     16362     16365     16368     16370
     16362     16365     16368     16371     16363     16362     16365     16366
     16363     16362     16365     16367     16363     16362     16365     16368
     16364     16362     16365     16366     16364     16362     16365     16367
     16364     16362     16365     16368     16365     16368     16371     16372
     16365     16368     16371     16373     16365     16368     16371     16374
     16366     16365     16368     16369     16366     16365     16368     16370
     16366     16365     16368     16371     16367     16365     16368     16369
     16367     16365     16368     16370     16367     16365     16368     16371
     16368     16371     16374     16375     16368     16371     16374     16376
     16368     16371     16374     16377     16369     16368     16371     16372
     16369     16368     16371     16373     16369     16368     16371     16374
     16370     16368     16371     16372     16370     16368     16371     16373
     16370     16368     16371     16374     16371     16374     16377     16378
     16371     16374     16377     16379     16371     16374     16377     16380
     16372     16371     16374     16375     16372     16371     16374     16376
     16372     16371     16374     16377     16373     16371     16374     16375
     16373     16371     16374     16376     16373     16371     16374     16377
     16374     16377     16380     16381     16374     16377     16380     16382
     16374     16377     16380     16383     16375     16374     16377     16378
     16375     16374     16377     16379     16375     16374     16377     16380
     16376     16374     16377     16378     16376     16374     16377     16379
     16376     16374     16377     16380     16377     16380     16383     16384
     16377     16380     16383     16385     16377     16380     16383     16386
     16378     16377     16380     16381     16378     16377     16380     16382
     16378     16377     16380     16383     16379     16377     16380     16381
     16379     16377     16380     16382     16379     16377     16380     16383
     16380     16383     16386     16387     16380     16383     16386     16388
     16380     16383     16386     16389     16381     16380     16383     16384
     16381     16380     16383     16385     16381     16380     16383     16386
     16382     16380     16383     16384     16382     16380     16383     16385
     16382     16380     16383     16386     16383     16386     16389     16390
     16383     16386     16389     16391     16383     16386     16389     16392
     16384     16383     16386     16387     16384     16383     16386     16388
     16384     16383     16386     16389     16385     16383     16386     16387
     16385     16383     16386     16388     16385     16383     16386     16389
     16387     16386     16389     16390     16387     16386     16389     16391
     16387     16386     16389     16392     16388     16386     16389     16390
     16388     16386     16389     16391     16388     16386     16389     16392
     16393     16395     16398     16399     16393     16395     16398     16400
     16393     16395     16398     16401     16394     16393     16395     16396
     16394     16393     16395     16397     16394     16393     16395     16398
     16395     16398     16401     16402     16395     16398     16401     16403
     16395     16398     16401     16404     16396     16395     16398     16399
     16396     16395     16398     16400     16396     16395     16398     16401
     16397     16395     16398     16399     16397     16395     16398     16400
     16397     16395     16398     16401     16398     16401     16404     16405
     16398     16401     16404     16406     16398     16401     16404     16407
     16399     16398     16401     16402     16399     16398     16401     16403
     16399     16398     16401     16404     16400     16398     16401     16402
     16400     16398     16401     16403     16400     16398     16401     16404
     16401     16404     16407     16408     16401     16404     16407     16409
     16401     16404     16407     16410     16402     16401     16404     16405
     16402     16401     16404     16406     16402     16401     16404     16407
     16403     16401     16404     16405     16403     16401     16404     16406
     16403     16401     16404     16407     16404     16407     16410     16411
     16404     16407     16410     16412     16404     16407     16410     16413
     16405     16404     16407     16408     16405     16404     16407     16409
     16405     16404     16407     16410     16406     16404     16407     16408
     16406     16404     16407     16409     16406     16404     16407     16410
     16407     16410     16413     16414     16407     16410     16413     16415
     16407     16410     16413     16416     16408     16407     16410     16411
     16408     16407     16410     16412     16408     16407     16410     16413
     16409     16407     16410     16411     16409     16407     16410     16412
     16409     16407     16410     16413     16410     16413     16416     16417
     16410     16413     16416     16418     16411     16410     16413     16414
     16411     16410     16413     16415     16411     16410     16413     16416
     16412     16410     16413     16414     16412     16410     16413     16415
     16412     16410     16413     16416     16413     16416     16418     16419
     16413     16416     16418     16420     16414     16413     16416     16417
     16414     16413     16416     16418     16415     16413     16416     16417
     16415     16413     16416     16418     16416     16418     16420     16421
     16416     16418     16420     16422     16416     16418     16420     16423
     16417     16416     16418     16419     16417     16416     16418     16420
     16418     16420     16423     16424     16418     16420     16423     16425
     16418     16420     16423     16426     16419     16418     16420     16421
     16419     16418     16420     16422     16419     16418     16420     16423
     16420     16423     16426     16427     16420     16423     16426     16428
     16420     16423     16426     16429     16421     16420     16423     16424
     16421     16420     16423     16425     16421     16420     16423     16426
     16422     16420     16423     16424     16422     16420     16423     16425
     16422     16420     16423     16426     16423     16426     16429     16430
     16423     16426     16429     16431     16423     16426     16429     16432
     16424     16423     16426     16427     16424     16423     16426     16428
     16424     16423     16426     16429     16425     16423     16426     16427
     16425     16423     16426     16428     16425     16423     16426     16429
     16426     16429     16432     16433     16426     16429     16432     16434
     16426     16429     16432     16435     16427     16426     16429     16430
     16427     16426     16429     16431     16427     16426     16429     16432
     16428     16426     16429     16430     16428     16426     16429     16431
     16428     16426     16429     16432     16429     16432     16435     16436
     16429     16432     16435     16437     16429     16432     16435     16438
     16430     16429     16432     16433     16430     16429     16432     16434
     16430     16429     16432     16435     16431     16429     16432     16433
     16431     16429     16432     16434     16431     16429     16432     16435
     16432     16435     16438     16439     16432     16435     16438     16440
     16432     16435     16438     16441     16433     16432     16435     16436
     16433     16432     16435     16437     16433     16432     16435     16438
     16434     16432     16435     16436     16434     16432     16435     16437
     16434     16432     16435     16438     16435     16438     16441     16442
     16435     16438     16441     16443     16435     16438     16441     16444
     16436     16435     16438     16439     16436     16435     16438     16440
     16436     16435     16438     16441     16437     16435     16438     16439
     16437     16435     16438     16440     16437     16435     16438     16441
     16439     16438     16441     16442     16439     16438     16441     16443
     16439     16438     16441     16444     16440     16438     16441     16442
     16440     16438     16441     16443     16440     16438     16441     16444
     16445     16458     16461     16462     16445     16458     16461     16463
     16445     16458     16461     16467     16446     16445     16450     16451
     16446     16445     16450     16452     16446     16445     16450     16453
     16446     16445     16454     16455     16446     16445     16454     16456
     16446     16445     16454     16457     16446     16445     16458     16459
     16446     16445     16458     16460     16446     16445     16458     16461
     16447     16446     16445     16450     16447     16446     16445     16454
     16447     16446     16445     16458     16448     16446     16445     16450
     16448     16446     16445     16454     16448     16446     16445     16458
     16449     16446     16445     16450     16449     16446     16445     16454
     16449     16446     16445     16458     16450     16445     16454     16455
     16450     16445     16454     16456     16450     16445     16454     16457
     16450     16445     16458     16459     16450     16445     16458     16460
     16450     16445     16458     16461     16451     16450     16445     16454
     16451     16450     16445     16458     16452     16450     16445     16454
     16452     16450     16445     16458     16453     16450     16445     16454
     16453     16450     16445     16458     16454     16445     16458     16459
     16454     16445     16458     16460     16454     16445     16458     16461
     16455     16454     16445     16458     16456     16454     16445     16458
     16457     16454     16445     16458     16458     16461     16467     16464
     16459     16458     16461     16462     16459     16458     16461     16463
     16459     16458     16461     16467     16460     16458     16461     16462
     16460     16458     16461     16463     16460     16458     16461     16467
     16461     16467     16464     16465     16461     16467     16464     16466
     16461     16467     16464     16468     16462     16461     16467     16464
     16463     16461     16467     16464     16464     16468     16469     16470
     16464     16468     16469     16471     16464     16468     16469     16472
     16465     16464     16468     16469     16466     16464     16468     16469
     16467     16464     16468     16469     16468     16469     16472     16473
     16468     16469     16472     16474     16468     16469     16472     16480
     16469     16472     16474     16475     16469     16472     16480     16481
     16469     16472     16480     16482     16469     16472     16480     16483
     16470     16469     16472     16473     16470     16469     16472     16474
     16470     16469     16472     16480     16471     16469     16472     16473
     16471     16469     16472     16474     16471     16469     16472     16480
     16472     16474     16475     16476     16472     16474     16475     16477
     16472     16480     16483     16484     16473     16472     16474     16475
     16473     16472     16480     16481     16473     16472     16480     16482
     16473     16472     16480     16483     16474     16472     16480     16481
     16474     16472     16480     16482     16474     16472     16480     16483
     16474     16475     16477     16478     16474     16475     16477     16479
     16474     16475     16477     16489     16475     16474     16472     16480
     16475     16477     16489     16490     16475     16477     16489     16491
     16475     16477     16489     16492     16476     16475     16477     16478
     16476     16475     16477     16479     16476     16475     16477     16489
     16477     16489     16492     16493     16477     16489     16492     16494
     16477     16489     16492     16495     16478     16477     16489     16490
     16478     16477     16489     16491     16478     16477     16489     16492
     16479     16477     16489     16490     16479     16477     16489     16491
     16479     16477     16489     16492     16480     16483     16484     16485
     16480     16483     16484     16486     16481     16480     16483     16484
     16482     16480     16483     16484     16483     16484     16486     16487
     16483     16484     16486     16488     16483     16484     16486     16534
     16484     16486     16534     16535     16484     16486     16534     16536
     16484     16486     16534     16537     16485     16484     16486     16487
     16485     16484     16486     16488     16485     16484     16486     16534
     16486     16534     16537     16538     16486     16534     16537     16539
     16486     16534     16537     16540     16487     16486     16534     16535
     16487     16486     16534     16536     16487     16486     16534     16537
     16488     16486     16534     16535     16488     16486     16534     16536
     16488     16486     16534     16537     16489     16492     16495     16496
     16489     16492     16495     16497     16489     16492     16495     16498
     16490     16489     16492     16493     16490     16489     16492     16494
     16490     16489     16492     16495     16491     16489     16492     16493
     16491     16489     16492     16494     16491     16489     16492     16495
     16492     16495     16498     16499     16492     16495     16498     16500
     16492     16495     16498     16501     16493     16492     16495     16496
     16493     16492     16495     16497     16493     16492     16495     16498
     16494     16492     16495     16496     16494     16492     16495     16497
     16494     16492     16495     16498     16495     16498     16501     16502
     16495     16498     16501     16503     16495     16498     16501     16504
     16496     16495     16498     16499     16496     16495     16498     16500
     16496     16495     16498     16501     16497     16495     16498     16499
     16497     16495     16498     16500     16497     16495     16498     16501
     16498     16501     16504     16505     16498     16501     16504     16506
     16498     16501     16504     16507     16499     16498     16501     16502
     16499     16498     16501     16503     16499     16498     16501     16504
     16500     16498     16501     16502     16500     16498     16501     16503
     16500     16498     16501     16504     16501     16504     16507     16508
     16501     16504     16507     16509     16502     16501     16504     16505
     16502     16501     16504     16506     16502     16501     16504     16507
     16503     16501     16504     16505     16503     16501     16504     16506
     16503     16501     16504     16507     16504     16507     16509     16510
     16504     16507     16509     16511     16505     16504     16507     16508
     16505     16504     16507     16509     16506     16504     16507     16508
     16506     16504     16507     16509     16507     16509     16511     16512
     16507     16509     16511     16513     16507     16509     16511     16514
     16508     16507     16509     16510     16508     16507     16509     16511
     16509     16511     16514     16515     16509     16511     16514     16516
     16510     16509     16511     16512     16510     16509     16511     16513
     16510     16509     16511     16514     16511     16514     16516     16517
     16511     16514     16516     16518     16512     16511     16514     16515
     16512     16511     16514     16516     16513     16511     16514     16515
     16513     16511     16514     16516     16514     16516     16518     16519
     16514     16516     16518     16520     16514     16516     16518     16521
     16515     16514     16516     16517     16515     16514     16516     16518
     16516     16518     16521     16522     16516     16518     16521     16523
     16516     16518     16521     16524     16517     16516     16518     16519
     16517     16516     16518     16520     16517     16516     16518     16521
     16518     16521     16524     16525     16518     16521     16524     16526
     16518     16521     16524     16527     16519     16518     16521     16522
     16519     16518     16521     16523     16519     16518     16521     16524
     16520     16518     16521     16522     16520     16518     16521     16523
     16520     16518     16521     16524     16521     16524     16527     16528
     16521     16524     16527     16529     16521     16524     16527     16530
     16522     16521     16524     16525     16522     16521     16524     16526
     16522     16521     16524     16527     16523     16521     16524     16525
     16523     16521     16524     16526     16523     16521     16524     16527
     16524     16527     16530     16531     16524     16527     16530     16532
     16524     16527     16530     16533     16525     16524     16527     16528
     16525     16524     16527     16529     16525     16524     16527     16530
     16526     16524     16527     16528     16526     16524     16527     16529
     16526     16524     16527     16530     16528     16527     16530     16531
     16528     16527     16530     16532     16528     16527     16530     16533
     16529     16527     16530     16531     16529     16527     16530     16532
     16529     16527     16530     16533     16534     16537     16540     16541
     16534     16537     16540     16542     16534     16537     16540     16543
     16535     16534     16537     16538     16535     16534     16537     16539
     16535     16534     16537     16540     16536     16534     16537     16538
     16536     16534     16537     16539     16536     16534     16537     16540
     16537     16540     16543     16544     16537     16540     16543     16545
     16537     16540     16543     16546     16538     16537     16540     16541
     16538     16537     16540     16542     16538     16537     16540     16543
     16539     16537     16540     16541     16539     16537     16540     16542
     16539     16537     16540     16543     16540     16543     16546     16547
     16540     16543     16546     16548     16540     16543     16546     16549
     16541     16540     16543     16544     16541     16540     16543     16545
     16541     16540     16543     16546     16542     16540     16543     16544
     16542     16540     16543     16545     16542     16540     16543     16546
     16543     16546     16549     16550     16543     16546     16549     16551
     16543     16546     16549     16552     16544     16543     16546     16547
     16544     16543     16546     16548     16544     16543     16546     16549
     16545     16543     16546     16547     16545     16543     16546     16548
     16545     16543     16546     16549     16546     16549     16552     16553
     16546     16549     16552     16554     16546     16549     16552     16555
     16547     16546     16549     16550     16547     16546     16549     16551
     16547     16546     16549     16552     16548     16546     16549     16550
     16548     16546     16549     16551     16548     16546     16549     16552
     16549     16552     16555     16556     16549     16552     16555     16557
     16549     16552     16555     16558     16550     16549     16552     16553
     16550     16549     16552     16554     16550     16549     16552     16555
     16551     16549     16552     16553     16551     16549     16552     16554
     16551     16549     16552     16555     16552     16555     16558     16559
     16552     16555     16558     16560     16552     16555     16558     16561
     16553     16552     16555     16556     16553     16552     16555     16557
     16553     16552     16555     16558     16554     16552     16555     16556
     16554     16552     16555     16557     16554     16552     16555     16558
     16555     16558     16561     16562     16555     16558     16561     16563
     16555     16558     16561     16564     16556     16555     16558     16559
     16556     16555     16558     16560     16556     16555     16558     16561
     16557     16555     16558     16559     16557     16555     16558     16560
     16557     16555     16558     16561     16558     16561     16564     16565
     16558     16561     16564     16566     16558     16561     16564     16567
     16559     16558     16561     16562     16559     16558     16561     16563
     16559     16558     16561     16564     16560     16558     16561     16562
     16560     16558     16561     16563     16560     16558     16561     16564
     16561     16564     16567     16568     16561     16564     16567     16569
     16561     16564     16567     16570     16562     16561     16564     16565
     16562     16561     16564     16566     16562     16561     16564     16567
     16563     16561     16564     16565     16563     16561     16564     16566
     16563     16561     16564     16567     16564     16567     16570     16571
     16564     16567     16570     16572     16564     16567     16570     16573
     16565     16564     16567     16568     16565     16564     16567     16569
     16565     16564     16567     16570     16566     16564     16567     16568
     16566     16564     16567     16569     16566     16564     16567     16570
     16567     16570     16573     16574     16567     16570     16573     16575
     16567     16570     16573     16576     16568     16567     16570     16571
     16568     16567     16570     16572     16568     16567     16570     16573
     16569     16567     16570     16571     16569     16567     16570     16572
     16569     16567     16570     16573     16570     16573     16576     16577
     16570     16573     16576     16578     16570     16573     16576     16579
     16571     16570     16573     16574     16571     16570     16573     16575
     16571     16570     16573     16576     16572     16570     16573     16574
     16572     16570     16573     16575     16572     16570     16573     16576
     16573     16576     16579     16580     16573     16576     16579     16581
     16573     16576     16579     16582     16574     16573     16576     16577
     16574     16573     16576     16578     16574     16573     16576     16579
     16575     16573     16576     16577     16575     16573     16576     16578
     16575     16573     16576     16579     16577     16576     16579     16580
     16577     16576     16579     16581     16577     16576     16579     16582
     16578     16576     16579     16580     16578     16576     16579     16581
     16578     16576     16579     16582     16583     16587     16590     16591
     16583     16587     16590     16621     16583     16629     16626     16621
     16583     16629     16626     16627     16583     16629     16626     16628
     16584     16583     16585     16586     16584     16583     16587     16588
     16584     16583     16587     16589     16584     16583     16587     16590
     16584     16583     16629     16626     16584     16583     16629     16630
     16584     16583     16629     16631     16585     16583     16587     16588
     16585     16583     16587     16589     16585     16583     16587     16590
     16585     16583     16629     16626     16585     16583     16629     16630
     16585     16583     16629     16631     16586     16585     16583     16587
     16586     16585     16583     16629     16587     16583     16629     16626
     16587     16583     16629     16630     16587     16583     16629     16631
     16587     16590     16591     16592     16587     16590     16591     16593
     16587     16590     16621     16619     16587     16590     16621     16622
     16587     16590     16621     16626     16588     16587     16583     16629
     16588     16587     16590     16591     16588     16587     16590     16621
     16589     16587     16583     16629     16589     16587     16590     16591
     16589     16587     16590     16621     16590     16587     16583     16629
     16590     16591     16593     16594     16590     16591     16593     16595
     16590     16591     16593     16596     16590     16621     16619     16596
     16590     16621     16619     16616     16590     16621     16619     16620
     16590     16621     16622     16623     16590     16621     16622     16624
     16590     16621     16622     16625     16590     16621     16626     16627
     16590     16621     16626     16628     16590     16621     16626     16629
     16591     16590     16621     16619     16591     16590     16621     16622
     16591     16590     16621     16626     16591     16593     16596     16597
     16591     16593     16596     16598     16591     16593     16596     16619
     16592     16591     16590     16621     16592     16591     16593     16594
     16592     16591     16593     16595     16592     16591     16593     16596
     16593     16591     16590     16621     16593     16596     16598     16599
     16593     16596     16598     16600     16593     16596     16598     16608
     16593     16596     16619     16616     16593     16596     16619     16620
     16593     16596     16619     16621     16594     16593     16596     16597
     16594     16593     16596     16598     16594     16593     16596     16619
     16595     16593     16596     16597     16595     16593     16596     16598
     16595     16593     16596     16619     16596     16598     16600     16601
     16596     16598     16600     16602     16596     16598     16600     16603
     16596     16598     16608     16606     16596     16598     16608     16609
     16596     16598     16608     16613     16596     16619     16616     16613
     16596     16619     16616     16617     16596     16619     16616     16618
     16596     16619     16621     16622     16596     16619     16621     16626
     16597     16596     16598     16599     16597     16596     16598     16600
     16597     16596     16598     16608     16597     16596     16619     16616
     16597     16596     16619     16620     16597     16596     16619     16621
     16598     16596     16619     16616     16598     16596     16619     16620
     16598     16596     16619     16621     16598     16600     16603     16604
     16598     16600     16603     16605     16598     16600     16603     16606
     16598     16608     16606     16603     16598     16608     16606     16607
     16598     16608     16606     16632     16598     16608     16609     16610
     16598     16608     16609     16611     16598     16608     16609     16612
     16598     16608     16613     16614     16598     16608     16613     16615
     16598     16608     16613     16616     16599     16598     16596     16619
     16599     16598     16600     16601     16599     16598     16600     16602
     16599     16598     16600     16603     16599     16598     16608     16606
     16599     16598     16608     16609     16599     16598     16608     16613
     16600     16598     16596     16619     16600     16598     16608     16606
     16600     16598     16608     16609     16600     16598     16608     16613
     16600     16603     16606     16607     16600     16603     16606     16608
     16600     16603     16606     16632     16601     16600     16598     16608
     16601     16600     16603     16604     16601     16600     16603     16605
     16601     16600     16603     16606     16602     16600     16598     16608
     16602     16600     16603     16604     16602     16600     16603     16605
     16602     16600     16603     16606     16603     16600     16598     16608
     16603     16606     16608     16609     16603     16606     16608     16613
     16603     16606     16632     16633     16603     16606     16632     16634
     16603     16606     16632     16638     16604     16603     16606     16607
     16604     16603     16606     16608     16604     16603     16606     16632
     16605     16603     16606     16607     16605     16603     16606     16608
     16605     16603     16606     16632     16606     16608     16609     16610
     16606     16608     16609     16611     16606     16608     16609     16612
     16606     16608     16613     16614     16606     16608     16613     16615
     16606     16608     16613     16616     16606     16632     16634     16635
     16606     16632     16634     16636     16606     16632     16634     16637
     16606     16632     16638     16639     16606     16632     16638     16640
     16606     16632     16638     16641     16607     16606     16608     16609
     16607     16606     16608     16613     16607     16606     16632     16633
     16607     16606     16632     16634     16607     16606     16632     16638
     16608     16598     16596     16619     16608     16606     16632     16633
     16608     16606     16632     16634     16608     16606     16632     16638
     16608     16613     16616     16617     16608     16613     16616     16618
     16608     16613     16616     16619     16609     16608     16606     16632
     16609     16608     16613     16614     16609     16608     16613     16615
     16609     16608     16613     16616     16610     16609     16608     16613
     16611     16609     16608     16613     16612     16609     16608     16613
     16613     16608     16606     16632     16613     16616     16619     16620
     16613     16616     16619     16621     16614     16613     16616     16617
     16614     16613     16616     16618     16614     16613     16616     16619
     16615     16613     16616     16617     16615     16613     16616     16618
     16615     16613     16616     16619     16616     16619     16621     16622
     16616     16619     16621     16626     16617     16616     16619     16620
     16617     16616     16619     16621     16618     16616     16619     16620
     16618     16616     16619     16621     16619     16621     16622     16623
     16619     16621     16622     16624     16619     16621     16622     16625
     16619     16621     16626     16627     16619     16621     16626     16628
     16619     16621     16626     16629     16620     16619     16621     16622
     16620     16619     16621     16626     16621     16626     16629     16630
     16621     16626     16629     16631     16622     16621     16626     16627
     16622     16621     16626     16628     16622     16621     16626     16629
     16623     16622     16621     16626     16624     16622     16621     16626
     16625     16622     16621     16626     16627     16626     16629     16630
     16627     16626     16629     16631     16628     16626     16629     16630
     16628     16626     16629     16631     16632     16638     16641     16642
     16632     16638     16641     16643     16632     16638     16641     16644
     16633     16632     16634     16635     16633     16632     16634     16636
     16633     16632     16634     16637     16633     16632     16638     16639
     16633     16632     16638     16640     16633     16632     16638     16641
     16634     16632     16638     16639     16634     16632     16638     16640
     16634     16632     16638     16641     16635     16634     16632     16638
     16636     16634     16632     16638     16637     16634     16632     16638
     16638     16641     16644     16645     16638     16641     16644     16646
     16638     16641     16644     16647     16639     16638     16641     16642
     16639     16638     16641     16643     16639     16638     16641     16644
     16640     16638     16641     16642     16640     16638     16641     16643
     16640     16638     16641     16644     16641     16644     16647     16648
     16641     16644     16647     16649     16641     16644     16647     16653
     16642     16641     16644     16645     16642     16641     16644     16646
     16642     16641     16644     16647     16643     16641     16644     16645
     16643     16641     16644     16646     16643     16641     16644     16647
     16644     16647     16649     16650     16644     16647     16649     16651
     16644     16647     16649     16652     16644     16647     16653     16654
     16644     16647     16653     16655     16644     16647     16653     16656
     16645     16644     16647     16648     16645     16644     16647     16649
     16645     16644     16647     16653     16646     16644     16647     16648
     16646     16644     16647     16649     16646     16644     16647     16653
     16648     16647     16649     16650     16648     16647     16649     16651
     16648     16647     16649     16652     16648     16647     16653     16654
     16648     16647     16653     16655     16648     16647     16653     16656
     16649     16647     16653     16654     16649     16647     16653     16655
     16649     16647     16653     16656     16650     16649     16647     16653
     16651     16649     16647     16653     16652     16649     16647     16653
     16657     16661     16664     16665     16657     16661     16664     16666
     16657     16661     16664     16670     16658     16657     16661     16662
     16658     16657     16661     16663     16658     16657     16661     16664
     16659     16657     16661     16662     16659     16657     16661     16663
     16659     16657     16661     16664     16660     16657     16661     16662
     16660     16657     16661     16663     16660     16657     16661     16664
     16661     16664     16670     16667     16662     16661     16664     16665
     16662     16661     16664     16666     16662     16661     16664     16670
     16663     16661     16664     16665     16663     16661     16664     16666
     16663     16661     16664     16670     16664     16670     16667     16668
     16664     16670     16667     16669     16664     16670     16667     16671
     16665     16664     16670     16667     16666     16664     16670     16667
     16667     16671     16672     16673     16667     16671     16672     16674
     16667     16671     16672     16675     16668     16667     16671     16672
     16669     16667     16671     16672     16670     16667     16671     16672
     16671     16672     16675     16676     16671     16672     16675     16677
     16671     16672     16675     16683     16672     16675     16677     16678
     16672     16675     16683     16684     16672     16675     16683     16685
     16672     16675     16683     16686     16673     16672     16675     16676
     16673     16672     16675     16677     16673     16672     16675     16683
     16674     16672     16675     16676     16674     16672     16675     16677
     16674     16672     16675     16683     16675     16677     16678     16679
     16675     16677     16678     16680     16675     16683     16686     16687
     16676     16675     16677     16678     16676     16675     16683     16684
     16676     16675     16683     16685     16676     16675     16683     16686
     16677     16675     16683     16684     16677     16675     16683     16685
     16677     16675     16683     16686     16677     16678     16680     16681
     16677     16678     16680     16682     16677     16678     16680     16692
     16678     16677     16675     16683     16678     16680     16692     16693
     16678     16680     16692     16694     16678     16680     16692     16695
     16679     16678     16680     16681     16679     16678     16680     16682
     16679     16678     16680     16692     16680     16692     16695     16696
     16680     16692     16695     16697     16680     16692     16695     16698
     16681     16680     16692     16693     16681     16680     16692     16694
     16681     16680     16692     16695     16682     16680     16692     16693
     16682     16680     16692     16694     16682     16680     16692     16695
     16683     16686     16687     16688     16683     16686     16687     16689
     16684     16683     16686     16687     16685     16683     16686     16687
     16686     16687     16689     16690     16686     16687     16689     16691
     16686     16687     16689     16739     16687     16689     16739     16740
     16687     16689     16739     16741     16687     16689     16739     16742
     16688     16687     16689     16690     16688     16687     16689     16691
     16688     16687     16689     16739     16689     16739     16742     16743
     16689     16739     16742     16744     16689     16739     16742     16745
     16690     16689     16739     16740     16690     16689     16739     16741
     16690     16689     16739     16742     16691     16689     16739     16740
     16691     16689     16739     16741     16691     16689     16739     16742
     16692     16695     16698     16699     16692     16695     16698     16700
     16692     16695     16698     16701     16693     16692     16695     16696
     16693     16692     16695     16697     16693     16692     16695     16698
     16694     16692     16695     16696     16694     16692     16695     16697
     16694     16692     16695     16698     16695     16698     16701     16702
     16695     16698     16701     16703     16695     16698     16701     16704
     16696     16695     16698     16699     16696     16695     16698     16700
     16696     16695     16698     16701     16697     16695     16698     16699
     16697     16695     16698     16700     16697     16695     16698     16701
     16698     16701     16704     16705     16698     16701     16704     16706
     16698     16701     16704     16707     16699     16698     16701     16702
     16699     16698     16701     16703     16699     16698     16701     16704
     16700     16698     16701     16702     16700     16698     16701     16703
     16700     16698     16701     16704     16701     16704     16707     16708
     16701     16704     16707     16709     16701     16704     16707     16710
     16702     16701     16704     16705     16702     16701     16704     16706
     16702     16701     16704     16707     16703     16701     16704     16705
     16703     16701     16704     16706     16703     16701     16704     16707
     16704     16707     16710     16711     16704     16707     16710     16712
     16705     16704     16707     16708     16705     16704     16707     16709
     16705     16704     16707     16710     16706     16704     16707     16708
     16706     16704     16707     16709     16706     16704     16707     16710
     16707     16710     16712     16713     16707     16710     16712     16714
     16708     16707     16710     16711     16708     16707     16710     16712
     16709     16707     16710     16711     16709     16707     16710     16712
     16710     16712     16714     16715     16710     16712     16714     16716
     16710     16712     16714     16717     16711     16710     16712     16713
     16711     16710     16712     16714     16712     16714     16717     16718
     16712     16714     16717     16719     16712     16714     16717     16720
     16713     16712     16714     16715     16713     16712     16714     16716
     16713     16712     16714     16717     16714     16717     16720     16721
     16714     16717     16720     16722     16714     16717     16720     16723
     16715     16714     16717     16718     16715     16714     16717     16719
     16715     16714     16717     16720     16716     16714     16717     16718
     16716     16714     16717     16719     16716     16714     16717     16720
     16717     16720     16723     16724     16717     16720     16723     16725
     16717     16720     16723     16726     16718     16717     16720     16721
     16718     16717     16720     16722     16718     16717     16720     16723
     16719     16717     16720     16721     16719     16717     16720     16722
     16719     16717     16720     16723     16720     16723     16726     16727
     16720     16723     16726     16728     16720     16723     16726     16729
     16721     16720     16723     16724     16721     16720     16723     16725
     16721     16720     16723     16726     16722     16720     16723     16724
     16722     16720     16723     16725     16722     16720     16723     16726
     16723     16726     16729     16730     16723     16726     16729     16731
     16723     16726     16729     16732     16724     16723     16726     16727
     16724     16723     16726     16728     16724     16723     16726     16729
     16725     16723     16726     16727     16725     16723     16726     16728
     16725     16723     16726     16729     16726     16729     16732     16733
     16726     16729     16732     16734     16726     16729     16732     16735
     16727     16726     16729     16730     16727     16726     16729     16731
     16727     16726     16729     16732     16728     16726     16729     16730
     16728     16726     16729     16731     16728     16726     16729     16732
     16729     16732     16735     16736     16729     16732     16735     16737
     16729     16732     16735     16738     16730     16729     16732     16733
     16730     16729     16732     16734     16730     16729     16732     16735
     16731     16729     16732     16733     16731     16729     16732     16734
     16731     16729     16732     16735     16733     16732     16735     16736
     16733     16732     16735     16737     16733     16732     16735     16738
     16734     16732     16735     16736     16734     16732     16735     16737
     16734     16732     16735     16738     16739     16742     16745     16746
     16739     16742     16745     16747     16739     16742     16745     16748
     16740     16739     16742     16743     16740     16739     16742     16744
     16740     16739     16742     16745     16741     16739     16742     16743
     16741     16739     16742     16744     16741     16739     16742     16745
     16742     16745     16748     16749     16742     16745     16748     16750
     16742     16745     16748     16751     16743     16742     16745     16746
     16743     16742     16745     16747     16743     16742     16745     16748
     16744     16742     16745     16746     16744     16742     16745     16747
     16744     16742     16745     16748     16745     16748     16751     16752
     16745     16748     16751     16753     16745     16748     16751     16754
     16746     16745     16748     16749     16746     16745     16748     16750
     16746     16745     16748     16751     16747     16745     16748     16749
     16747     16745     16748     16750     16747     16745     16748     16751
     16748     16751     16754     16755     16748     16751     16754     16756
     16748     16751     16754     16757     16749     16748     16751     16752
     16749     16748     16751     16753     16749     16748     16751     16754
     16750     16748     16751     16752     16750     16748     16751     16753
     16750     16748     16751     16754     16751     16754     16757     16758
     16751     16754     16757     16759     16751     16754     16757     16760
     16752     16751     16754     16755     16752     16751     16754     16756
     16752     16751     16754     16757     16753     16751     16754     16755
     16753     16751     16754     16756     16753     16751     16754     16757
     16754     16757     16760     16761     16754     16757     16760     16762
     16754     16757     16760     16763     16755     16754     16757     16758
     16755     16754     16757     16759     16755     16754     16757     16760
     16756     16754     16757     16758     16756     16754     16757     16759
     16756     16754     16757     16760     16757     16760     16763     16764
     16757     16760     16763     16765     16757     16760     16763     16766
     16758     16757     16760     16761     16758     16757     16760     16762
     16758     16757     16760     16763     16759     16757     16760     16761
     16759     16757     16760     16762     16759     16757     16760     16763
     16760     16763     16766     16767     16760     16763     16766     16768
     16760     16763     16766     16769     16761     16760     16763     16764
     16761     16760     16763     16765     16761     16760     16763     16766
     16762     16760     16763     16764     16762     16760     16763     16765
     16762     16760     16763     16766     16763     16766     16769     16770
     16763     16766     16769     16771     16763     16766     16769     16772
     16764     16763     16766     16767     16764     16763     16766     16768
     16764     16763     16766     16769     16765     16763     16766     16767
     16765     16763     16766     16768     16765     16763     16766     16769
     16766     16769     16772     16773     16766     16769     16772     16774
     16766     16769     16772     16775     16767     16766     16769     16770
     16767     16766     16769     16771     16767     16766     16769     16772
     16768     16766     16769     16770     16768     16766     16769     16771
     16768     16766     16769     16772     16769     16772     16775     16776
     16769     16772     16775     16777     16769     16772     16775     16778
     16770     16769     16772     16773     16770     16769     16772     16774
     16770     16769     16772     16775     16771     16769     16772     16773
     16771     16769     16772     16774     16771     16769     16772     16775
     16772     16775     16778     16779     16772     16775     16778     16780
     16772     16775     16778     16781     16773     16772     16775     16776
     16773     16772     16775     16777     16773     16772     16775     16778
     16774     16772     16775     16776     16774     16772     16775     16777
     16774     16772     16775     16778     16775     16778     16781     16782
     16775     16778     16781     16783     16775     16778     16781     16784
     16776     16775     16778     16779     16776     16775     16778     16780
     16776     16775     16778     16781     16777     16775     16778     16779
     16777     16775     16778     16780     16777     16775     16778     16781
     16778     16781     16784     16785     16778     16781     16784     16786
     16778     16781     16784     16787     16779     16778     16781     16782
     16779     16778     16781     16783     16779     16778     16781     16784
     16780     16778     16781     16782     16780     16778     16781     16783
     16780     16778     16781     16784     16782     16781     16784     16785
     16782     16781     16784     16786     16782     16781     16784     16787
     16783     16781     16784     16785     16783     16781     16784     16786
     16783     16781     16784     16787     16788     16801     16804     16805
     16788     16801     16804     16806     16788     16801     16804     16811
     16789     16788     16793     16794     16789     16788     16793     16795
     16789     16788     16793     16796     16789     16788     16797     16798
     16789     16788     16797     16799     16789     16788     16797     16800
     16789     16788     16801     16802     16789     16788     16801     16803
     16789     16788     16801     16804     16790     16789     16788     16793
     16790     16789     16788     16797     16790     16789     16788     16801
     16791     16789     16788     16793     16791     16789     16788     16797
     16791     16789     16788     16801     16792     16789     16788     16793
     16792     16789     16788     16797     16792     16789     16788     16801
     16793     16788     16797     16798     16793     16788     16797     16799
     16793     16788     16797     16800     16793     16788     16801     16802
     16793     16788     16801     16803     16793     16788     16801     16804
     16794     16793     16788     16797     16794     16793     16788     16801
     16795     16793     16788     16797     16795     16793     16788     16801
     16796     16793     16788     16797     16796     16793     16788     16801
     16797     16788     16801     16802     16797     16788     16801     16803
     16797     16788     16801     16804     16798     16797     16788     16801
     16799     16797     16788     16801     16800     16797     16788     16801
     16801     16804     16811     16807     16802     16801     16804     16805
     16802     16801     16804     16806     16802     16801     16804     16811
     16803     16801     16804     16805     16803     16801     16804     16806
     16803     16801     16804     16811     16804     16811     16807     16808
     16804     16811     16807     16809     16804     16811     16807     16810
     16805     16804     16811     16807     16806     16804     16811     16807
     16807     16810     16812     16813     16807     16810     16812     16814
     16807     16810     16812     16817     16808     16807     16810     16812
     16809     16807     16810     16812     16810     16812     16817     16815
     16810     16812     16817     16818     16810     16812     16817     16819
     16811     16807     16810     16812     16812     16817     16815     16816
     16812     16817     16815     16867     16812     16817     16819     16820
     16812     16817     16819     16821     16812     16817     16819     16823
     16813     16812     16817     16815     16813     16812     16817     16818
     16813     16812     16817     16819     16814     16812     16817     16815
     16814     16812     16817     16818     16814     16812     16817     16819
     16815     16817     16819     16820     16815     16817     16819     16821
     16815     16817     16819     16823     16815     16867     16869     16870
     16815     16867     16869     16871     16815     16867     16869     16872
     16816     16815     16817     16818     16816     16815     16817     16819
     16816     16815     16867     16868     16816     16815     16867     16869
     16817     16815     16867     16868     16817     16815     16867     16869
     16817     16819     16821     16822     16817     16819     16823     16824
     16817     16819     16823     16825     16818     16817     16815     16867
     16818     16817     16819     16820     16818     16817     16819     16821
     16818     16817     16819     16823     16819     16817     16815     16867
     16819     16823     16825     16826     16819     16823     16825     16827
     16820     16819     16821     16822     16820     16819     16823     16824
     16820     16819     16823     16825     16821     16819     16823     16824
     16821     16819     16823     16825     16822     16821     16819     16823
     16823     16825     16827     16828     16823     16825     16827     16829
     16823     16825     16827     16830     16824     16823     16825     16826
     16824     16823     16825     16827     16825     16827     16830     16831
     16825     16827     16830     16832     16825     16827     16830     16833
     16826     16825     16827     16828     16826     16825     16827     16829
     16826     16825     16827     16830     16827     16830     16833     16834
     16827     16830     16833     16835     16827     16830     16833     16836
     16828     16827     16830     16831     16828     16827     16830     16832
     16828     16827     16830     16833     16829     16827     16830     16831
     16829     16827     16830     16832     16829     16827     16830     16833
     16830     16833     16836     16837     16830     16833     16836     16838
     16830     16833     16836     16839     16831     16830     16833     16834
     16831     16830     16833     16835     16831     16830     16833     16836
     16832     16830     16833     16834     16832     16830     16833     16835
     16832     16830     16833     16836     16833     16836     16839     16840
     16833     16836     16839     16841     16833     16836     16839     16842
     16834     16833     16836     16837     16834     16833     16836     16838
     16834     16833     16836     16839     16835     16833     16836     16837
     16835     16833     16836     16838     16835     16833     16836     16839
     16836     16839     16842     16843     16836     16839     16842     16844
     16836     16839     16842     16845     16837     16836     16839     16840
     16837     16836     16839     16841     16837     16836     16839     16842
     16838     16836     16839     16840     16838     16836     16839     16841
     16838     16836     16839     16842     16839     16842     16845     16846
     16839     16842     16845     16847     16839     16842     16845     16848
     16840     16839     16842     16843     16840     16839     16842     16844
     16840     16839     16842     16845     16841     16839     16842     16843
     16841     16839     16842     16844     16841     16839     16842     16845
     16842     16845     16848     16849     16842     16845     16848     16850
     16842     16845     16848     16851     16843     16842     16845     16846
     16843     16842     16845     16847     16843     16842     16845     16848
     16844     16842     16845     16846     16844     16842     16845     16847
     16844     16842     16845     16848     16845     16848     16851     16852
     16845     16848     16851     16853     16845     16848     16851     16854
     16846     16845     16848     16849     16846     16845     16848     16850
     16846     16845     16848     16851     16847     16845     16848     16849
     16847     16845     16848     16850     16847     16845     16848     16851
     16848     16851     16854     16855     16848     16851     16854     16856
     16848     16851     16854     16857     16849     16848     16851     16852
     16849     16848     16851     16853     16849     16848     16851     16854
     16850     16848     16851     16852     16850     16848     16851     16853
     16850     16848     16851     16854     16851     16854     16857     16858
     16851     16854     16857     16859     16851     16854     16857     16860
     16852     16851     16854     16855     16852     16851     16854     16856
     16852     16851     16854     16857     16853     16851     16854     16855
     16853     16851     16854     16856     16853     16851     16854     16857
     16854     16857     16860     16861     16854     16857     16860     16862
     16854     16857     16860     16863     16855     16854     16857     16858
     16855     16854     16857     16859     16855     16854     16857     16860
     16856     16854     16857     16858     16856     16854     16857     16859
     16856     16854     16857     16860     16857     16860     16863     16864
     16857     16860     16863     16865     16857     16860     16863     16866
     16858     16857     16860     16861     16858     16857     16860     16862
     16858     16857     16860     16863     16859     16857     16860     16861
     16859     16857     16860     16862     16859     16857     16860     16863
     16861     16860     16863     16864     16861     16860     16863     16865
     16861     16860     16863     16866     16862     16860     16863     16864
     16862     16860     16863     16865     16862     16860     16863     16866
     16867     16869     16872     16873     16867     16869     16872     16874
     16867     16869     16872     16875     16868     16867     16869     16870
     16868     16867     16869     16871     16868     16867     16869     16872
     16869     16872     16875     16876     16869     16872     16875     16877
     16869     16872     16875     16878     16870     16869     16872     16873
     16870     16869     16872     16874     16870     16869     16872     16875
     16871     16869     16872     16873     16871     16869     16872     16874
     16871     16869     16872     16875     16872     16875     16878     16879
     16872     16875     16878     16880     16872     16875     16878     16881
     16873     16872     16875     16876     16873     16872     16875     16877
     16873     16872     16875     16878     16874     16872     16875     16876
     16874     16872     16875     16877     16874     16872     16875     16878
     16875     16878     16881     16882     16875     16878     16881     16883
     16875     16878     16881     16884     16876     16875     16878     16879
     16876     16875     16878     16880     16876     16875     16878     16881
     16877     16875     16878     16879     16877     16875     16878     16880
     16877     16875     16878     16881     16878     16881     16884     16885
     16878     16881     16884     16886     16878     16881     16884     16887
     16879     16878     16881     16882     16879     16878     16881     16883
     16879     16878     16881     16884     16880     16878     16881     16882
     16880     16878     16881     16883     16880     16878     16881     16884
     16881     16884     16887     16888     16881     16884     16887     16889
     16881     16884     16887     16890     16882     16881     16884     16885
     16882     16881     16884     16886     16882     16881     16884     16887
     16883     16881     16884     16885     16883     16881     16884     16886
     16883     16881     16884     16887     16884     16887     16890     16891
     16884     16887     16890     16892     16885     16884     16887     16888
     16885     16884     16887     16889     16885     16884     16887     16890
     16886     16884     16887     16888     16886     16884     16887     16889
     16886     16884     16887     16890     16887     16890     16892     16893
     16887     16890     16892     16894     16888     16887     16890     16891
     16888     16887     16890     16892     16889     16887     16890     16891
     16889     16887     16890     16892     16890     16892     16894     16895
     16890     16892     16894     16896     16890     16892     16894     16897
     16891     16890     16892     16893     16891     16890     16892     16894
     16892     16894     16897     16898     16892     16894     16897     16899
     16892     16894     16897     16900     16893     16892     16894     16895
     16893     16892     16894     16896     16893     16892     16894     16897
     16894     16897     16900     16901     16894     16897     16900     16902
     16894     16897     16900     16903     16895     16894     16897     16898
     16895     16894     16897     16899     16895     16894     16897     16900
     16896     16894     16897     16898     16896     16894     16897     16899
     16896     16894     16897     16900     16897     16900     16903     16904
     16897     16900     16903     16905     16897     16900     16903     16906
     16898     16897     16900     16901     16898     16897     16900     16902
     16898     16897     16900     16903     16899     16897     16900     16901
     16899     16897     16900     16902     16899     16897     16900     16903
     16900     16903     16906     16907     16900     16903     16906     16908
     16900     16903     16906     16909     16901     16900     16903     16904
     16901     16900     16903     16905     16901     16900     16903     16906
     16902     16900     16903     16904     16902     16900     16903     16905
     16902     16900     16903     16906     16903     16906     16909     16910
     16903     16906     16909     16911     16903     16906     16909     16912
     16904     16903     16906     16907     16904     16903     16906     16908
     16904     16903     16906     16909     16905     16903     16906     16907
     16905     16903     16906     16908     16905     16903     16906     16909
     16906     16909     16912     16913     16906     16909     16912     16914
     16906     16909     16912     16915     16907     16906     16909     16910
     16907     16906     16909     16911     16907     16906     16909     16912
     16908     16906     16909     16910     16908     16906     16909     16911
     16908     16906     16909     16912     16909     16912     16915     16916
     16909     16912     16915     16917     16909     16912     16915     16918
     16910     16909     16912     16913     16910     16909     16912     16914
     16910     16909     16912     16915     16911     16909     16912     16913
     16911     16909     16912     16914     16911     16909     16912     16915
     16913     16912     16915     16916     16913     16912     16915     16917
     16913     16912     16915     16918     16914     16912     16915     16916
     16914     16912     16915     16917     16914     16912     16915     16918
     16919     16923     16926     16927     16919     16923     16926     16928
     16919     16923     16926     16932     16920     16919     16923     16924
     16920     16919     16923     16925     16920     16919     16923     16926
     16921     16919     16923     16924     16921     16919     16923     16925
     16921     16919     16923     16926     16922     16919     16923     16924
     16922     16919     16923     16925     16922     16919     16923     16926
     16923     16926     16932     16929     16924     16923     16926     16927
     16924     16923     16926     16928     16924     16923     16926     16932
     16925     16923     16926     16927     16925     16923     16926     16928
     16925     16923     16926     16932     16926     16932     16929     16930
     16926     16932     16929     16931     16926     16932     16929     16933
     16927     16926     16932     16929     16928     16926     16932     16929
     16929     16933     16934     16935     16929     16933     16934     16936
     16929     16933     16934     16937     16930     16929     16933     16934
     16931     16929     16933     16934     16932     16929     16933     16934
     16933     16934     16937     16938     16933     16934     16937     16939
     16933     16934     16937     16945     16934     16937     16939     16940
     16934     16937     16945     16946     16934     16937     16945     16947
     16934     16937     16945     16948     16935     16934     16937     16938
     16935     16934     16937     16939     16935     16934     16937     16945
     16936     16934     16937     16938     16936     16934     16937     16939
     16936     16934     16937     16945     16937     16939     16940     16941
     16937     16939     16940     16942     16937     16945     16948     16949
     16938     16937     16939     16940     16938     16937     16945     16946
     16938     16937     16945     16947     16938     16937     16945     16948
     16939     16937     16945     16946     16939     16937     16945     16947
     16939     16937     16945     16948     16939     16940     16942     16943
     16939     16940     16942     16944     16939     16940     16942     16954
     16940     16939     16937     16945     16940     16942     16954     16955
     16940     16942     16954     16956     16940     16942     16954     16957
     16941     16940     16942     16943     16941     16940     16942     16944
     16941     16940     16942     16954     16942     16954     16957     16958
     16942     16954     16957     16959     16942     16954     16957     16960
     16943     16942     16954     16955     16943     16942     16954     16956
     16943     16942     16954     16957     16944     16942     16954     16955
     16944     16942     16954     16956     16944     16942     16954     16957
     16945     16948     16949     16950     16945     16948     16949     16951
     16946     16945     16948     16949     16947     16945     16948     16949
     16948     16949     16951     16952     16948     16949     16951     16953
     16948     16949     16951     17001     16949     16951     17001     17002
     16949     16951     17001     17003     16949     16951     17001     17004
     16950     16949     16951     16952     16950     16949     16951     16953
     16950     16949     16951     17001     16951     17001     17004     17005
     16951     17001     17004     17006     16951     17001     17004     17007
     16952     16951     17001     17002     16952     16951     17001     17003
     16952     16951     17001     17004     16953     16951     17001     17002
     16953     16951     17001     17003     16953     16951     17001     17004
     16954     16957     16960     16961     16954     16957     16960     16962
     16955     16954     16957     16958     16955     16954     16957     16959
     16955     16954     16957     16960     16956     16954     16957     16958
     16956     16954     16957     16959     16956     16954     16957     16960
     16957     16960     16962     16963     16957     16960     16962     16964
     16958     16957     16960     16961     16958     16957     16960     16962
     16959     16957     16960     16961     16959     16957     16960     16962
     16960     16962     16964     16965     16960     16962     16964     16966
     16960     16962     16964     16967     16961     16960     16962     16963
     16961     16960     16962     16964     16962     16964     16967     16968
     16962     16964     16967     16969     16963     16962     16964     16965
     16963     16962     16964     16966     16963     16962     16964     16967
     16964     16967     16969     16970     16964     16967     16969     16971
     16965     16964     16967     16968     16965     16964     16967     16969
     16966     16964     16967     16968     16966     16964     16967     16969
     16967     16969     16971     16972     16967     16969     16971     16973
     16967     16969     16971     16974     16968     16967     16969     16970
     16968     16967     16969     16971     16969     16971     16974     16975
     16969     16971     16974     16976     16970     16969     16971     16972
     16970     16969     16971     16973     16970     16969     16971     16974
     16971     16974     16976     16977     16971     16974     16976     16978
     16972     16971     16974     16975     16972     16971     16974     16976
     16973     16971     16974     16975     16973     16971     16974     16976
     16974     16976     16978     16979     16974     16976     16978     16980
     16974     16976     16978     16981     16975     16974     16976     16977
     16975     16974     16976     16978     16976     16978     16981     16982
     16976     16978     16981     16983     16977     16976     16978     16979
     16977     16976     16978     16980     16977     16976     16978     16981
     16978     16981     16983     16984     16978     16981     16983     16985
     16979     16978     16981     16982     16979     16978     16981     16983
     16980     16978     16981     16982     16980     16978     16981     16983
     16981     16983     16985     16986     16981     16983     16985     16987
     16981     16983     16985     16988     16982     16981     16983     16984
     16982     16981     16983     16985     16983     16985     16988     16989
     16983     16985     16988     16990     16983     16985     16988     16991
     16984     16983     16985     16986     16984     16983     16985     16987
     16984     16983     16985     16988     16985     16988     16991     16992
     16985     16988     16991     16993     16985     16988     16991     16994
     16986     16985     16988     16989     16986     16985     16988     16990
     16986     16985     16988     16991     16987     16985     16988     16989
     16987     16985     16988     16990     16987     16985     16988     16991
     16988     16991     16994     16995     16988     16991     16994     16996
     16988     16991     16994     16997     16989     16988     16991     16992
     16989     16988     16991     16993     16989     16988     16991     16994
     16990     16988     16991     16992     16990     16988     16991     16993
     16990     16988     16991     16994     16991     16994     16997     16998
     16991     16994     16997     16999     16991     16994     16997     17000
     16992     16991     16994     16995     16992     16991     16994     16996
     16992     16991     16994     16997     16993     16991     16994     16995
     16993     16991     16994     16996     16993     16991     16994     16997
     16995     16994     16997     16998     16995     16994     16997     16999
     16995     16994     16997     17000     16996     16994     16997     16998
     16996     16994     16997     16999     16996     16994     16997     17000
     17001     17004     17007     17008     17001     17004     17007     17009
     17001     17004     17007     17010     17002     17001     17004     17005
     17002     17001     17004     17006     17002     17001     17004     17007
     17003     17001     17004     17005     17003     17001     17004     17006
     17003     17001     17004     17007     17004     17007     17010     17011
     17004     17007     17010     17012     17004     17007     17010     17013
     17005     17004     17007     17008     17005     17004     17007     17009
     17005     17004     17007     17010     17006     17004     17007     17008
     17006     17004     17007     17009     17006     17004     17007     17010
     17007     17010     17013     17014     17007     17010     17013     17015
     17007     17010     17013     17016     17008     17007     17010     17011
     17008     17007     17010     17012     17008     17007     17010     17013
     17009     17007     17010     17011     17009     17007     17010     17012
     17009     17007     17010     17013     17010     17013     17016     17017
     17010     17013     17016     17018     17010     17013     17016     17019
     17011     17010     17013     17014     17011     17010     17013     17015
     17011     17010     17013     17016     17012     17010     17013     17014
     17012     17010     17013     17015     17012     17010     17013     17016
     17013     17016     17019     17020     17013     17016     17019     17021
     17013     17016     17019     17022     17014     17013     17016     17017
     17014     17013     17016     17018     17014     17013     17016     17019
     17015     17013     17016     17017     17015     17013     17016     17018
     17015     17013     17016     17019     17016     17019     17022     17023
     17016     17019     17022     17024     17016     17019     17022     17025
     17017     17016     17019     17020     17017     17016     17019     17021
     17017     17016     17019     17022     17018     17016     17019     17020
     17018     17016     17019     17021     17018     17016     17019     17022
     17019     17022     17025     17026     17019     17022     17025     17027
     17019     17022     17025     17028     17020     17019     17022     17023
     17020     17019     17022     17024     17020     17019     17022     17025
     17021     17019     17022     17023     17021     17019     17022     17024
     17021     17019     17022     17025     17022     17025     17028     17029
     17022     17025     17028     17030     17022     17025     17028     17031
     17023     17022     17025     17026     17023     17022     17025     17027
     17023     17022     17025     17028     17024     17022     17025     17026
     17024     17022     17025     17027     17024     17022     17025     17028
     17025     17028     17031     17032     17025     17028     17031     17033
     17025     17028     17031     17034     17026     17025     17028     17029
     17026     17025     17028     17030     17026     17025     17028     17031
     17027     17025     17028     17029     17027     17025     17028     17030
     17027     17025     17028     17031     17028     17031     17034     17035
     17028     17031     17034     17036     17028     17031     17034     17037
     17029     17028     17031     17032     17029     17028     17031     17033
     17029     17028     17031     17034     17030     17028     17031     17032
     17030     17028     17031     17033     17030     17028     17031     17034
     17031     17034     17037     17038     17031     17034     17037     17039
     17031     17034     17037     17040     17032     17031     17034     17035
     17032     17031     17034     17036     17032     17031     17034     17037
     17033     17031     17034     17035     17033     17031     17034     17036
     17033     17031     17034     17037     17034     17037     17040     17041
     17034     17037     17040     17042     17034     17037     17040     17043
     17035     17034     17037     17038     17035     17034     17037     17039
     17035     17034     17037     17040     17036     17034     17037     17038
     17036     17034     17037     17039     17036     17034     17037     17040
     17037     17040     17043     17044     17037     17040     17043     17045
     17037     17040     17043     17046     17038     17037     17040     17041
     17038     17037     17040     17042     17038     17037     17040     17043
     17039     17037     17040     17041     17039     17037     17040     17042
     17039     17037     17040     17043     17040     17043     17046     17047
     17040     17043     17046     17048     17040     17043     17046     17049
     17041     17040     17043     17044     17041     17040     17043     17045
     17041     17040     17043     17046     17042     17040     17043     17044
     17042     17040     17043     17045     17042     17040     17043     17046
     17044     17043     17046     17047     17044     17043     17046     17048
     17044     17043     17046     17049     17045     17043     17046     17047
     17045     17043     17046     17048     17045     17043     17046     17049
     17050     17054     17057     17058     17050     17054     17057     17059
     17050     17054     17057     17063     17051     17050     17054     17055
     17051     17050     17054     17056     17051     17050     17054     17057
     17052     17050     17054     17055     17052     17050     17054     17056
     17052     17050     17054     17057     17053     17050     17054     17055
     17053     17050     17054     17056     17053     17050     17054     17057
     17054     17057     17063     17060     17055     17054     17057     17058
     17055     17054     17057     17059     17055     17054     17057     17063
     17056     17054     17057     17058     17056     17054     17057     17059
     17056     17054     17057     17063     17057     17063     17060     17061
     17057     17063     17060     17062     17057     17063     17060     17064
     17058     17057     17063     17060     17059     17057     17063     17060
     17060     17064     17065     17066     17060     17064     17065     17067
     17060     17064     17065     17068     17061     17060     17064     17065
     17062     17060     17064     17065     17063     17060     17064     17065
     17064     17065     17068     17069     17064     17065     17068     17070
     17064     17065     17068     17076     17065     17068     17070     17071
     17065     17068     17076     17077     17065     17068     17076     17078
     17065     17068     17076     17079     17066     17065     17068     17069
     17066     17065     17068     17070     17066     17065     17068     17076
     17067     17065     17068     17069     17067     17065     17068     17070
     17067     17065     17068     17076     17068     17070     17071     17072
     17068     17070     17071     17073     17068     17076     17079     17080
     17069     17068     17070     17071     17069     17068     17076     17077
     17069     17068     17076     17078     17069     17068     17076     17079
     17070     17068     17076     17077     17070     17068     17076     17078
     17070     17068     17076     17079     17070     17071     17073     17074
     17070     17071     17073     17075     17070     17071     17073     17085
     17071     17070     17068     17076     17071     17073     17085     17086
     17071     17073     17085     17087     17071     17073     17085     17088
     17072     17071     17073     17074     17072     17071     17073     17075
     17072     17071     17073     17085     17073     17085     17088     17089
     17073     17085     17088     17090     17073     17085     17088     17091
     17074     17073     17085     17086     17074     17073     17085     17087
     17074     17073     17085     17088     17075     17073     17085     17086
     17075     17073     17085     17087     17075     17073     17085     17088
     17076     17079     17080     17081     17076     17079     17080     17082
     17077     17076     17079     17080     17078     17076     17079     17080
     17079     17080     17082     17083     17079     17080     17082     17084
     17079     17080     17082     17132     17080     17082     17132     17133
     17080     17082     17132     17134     17080     17082     17132     17135
     17081     17080     17082     17083     17081     17080     17082     17084
     17081     17080     17082     17132     17082     17132     17135     17136
     17082     17132     17135     17137     17082     17132     17135     17138
     17083     17082     17132     17133     17083     17082     17132     17134
     17083     17082     17132     17135     17084     17082     17132     17133
     17084     17082     17132     17134     17084     17082     17132     17135
     17085     17088     17091     17092     17085     17088     17091     17093
     17086     17085     17088     17089     17086     17085     17088     17090
     17086     17085     17088     17091     17087     17085     17088     17089
     17087     17085     17088     17090     17087     17085     17088     17091
     17088     17091     17093     17094     17088     17091     17093     17095
     17089     17088     17091     17092     17089     17088     17091     17093
     17090     17088     17091     17092     17090     17088     17091     17093
     17091     17093     17095     17096     17091     17093     17095     17097
     17091     17093     17095     17098     17092     17091     17093     17094
     17092     17091     17093     17095     17093     17095     17098     17099
     17093     17095     17098     17100     17094     17093     17095     17096
     17094     17093     17095     17097     17094     17093     17095     17098
     17095     17098     17100     17101     17095     17098     17100     17102
     17096     17095     17098     17099     17096     17095     17098     17100
     17097     17095     17098     17099     17097     17095     17098     17100
     17098     17100     17102     17103     17098     17100     17102     17104
     17098     17100     17102     17105     17099     17098     17100     17101
     17099     17098     17100     17102     17100     17102     17105     17106
     17100     17102     17105     17107     17101     17100     17102     17103
     17101     17100     17102     17104     17101     17100     17102     17105
     17102     17105     17107     17108     17102     17105     17107     17109
     17103     17102     17105     17106     17103     17102     17105     17107
     17104     17102     17105     17106     17104     17102     17105     17107
     17105     17107     17109     17110     17105     17107     17109     17111
     17105     17107     17109     17112     17106     17105     17107     17108
     17106     17105     17107     17109     17107     17109     17112     17113
     17107     17109     17112     17114     17108     17107     17109     17110
     17108     17107     17109     17111     17108     17107     17109     17112
     17109     17112     17114     17115     17109     17112     17114     17116
     17110     17109     17112     17113     17110     17109     17112     17114
     17111     17109     17112     17113     17111     17109     17112     17114
     17112     17114     17116     17117     17112     17114     17116     17118
     17112     17114     17116     17119     17113     17112     17114     17115
     17113     17112     17114     17116     17114     17116     17119     17120
     17114     17116     17119     17121     17114     17116     17119     17122
     17115     17114     17116     17117     17115     17114     17116     17118
     17115     17114     17116     17119     17116     17119     17122     17123
     17116     17119     17122     17124     17116     17119     17122     17125
     17117     17116     17119     17120     17117     17116     17119     17121
     17117     17116     17119     17122     17118     17116     17119     17120
     17118     17116     17119     17121     17118     17116     17119     17122
     17119     17122     17125     17126     17119     17122     17125     17127
     17119     17122     17125     17128     17120     17119     17122     17123
     17120     17119     17122     17124     17120     17119     17122     17125
     17121     17119     17122     17123     17121     17119     17122     17124
     17121     17119     17122     17125     17122     17125     17128     17129
     17122     17125     17128     17130     17122     17125     17128     17131
     17123     17122     17125     17126     17123     17122     17125     17127
     17123     17122     17125     17128     17124     17122     17125     17126
     17124     17122     17125     17127     17124     17122     17125     17128
     17126     17125     17128     17129     17126     17125     17128     17130
     17126     17125     17128     17131     17127     17125     17128     17129
     17127     17125     17128     17130     17127     17125     17128     17131
     17132     17135     17138     17139     17132     17135     17138     17140
     17132     17135     17138     17141     17133     17132     17135     17136
     17133     17132     17135     17137     17133     17132     17135     17138
     17134     17132     17135     17136     17134     17132     17135     17137
     17134     17132     17135     17138     17135     17138     17141     17142
     17135     17138     17141     17143     17135     17138     17141     17144
     17136     17135     17138     17139     17136     17135     17138     17140
     17136     17135     17138     17141     17137     17135     17138     17139
     17137     17135     17138     17140     17137     17135     17138     17141
     17138     17141     17144     17145     17138     17141     17144     17146
     17138     17141     17144     17147     17139     17138     17141     17142
     17139     17138     17141     17143     17139     17138     17141     17144
     17140     17138     17141     17142     17140     17138     17141     17143
     17140     17138     17141     17144     17141     17144     17147     17148
     17141     17144     17147     17149     17141     17144     17147     17150
     17142     17141     17144     17145     17142     17141     17144     17146
     17142     17141     17144     17147     17143     17141     17144     17145
     17143     17141     17144     17146     17143     17141     17144     17147
     17144     17147     17150     17151     17144     17147     17150     17152
     17144     17147     17150     17153     17145     17144     17147     17148
     17145     17144     17147     17149     17145     17144     17147     17150
     17146     17144     17147     17148     17146     17144     17147     17149
     17146     17144     17147     17150     17147     17150     17153     17154
     17147     17150     17153     17155     17147     17150     17153     17156
     17148     17147     17150     17151     17148     17147     17150     17152
     17148     17147     17150     17153     17149     17147     17150     17151
     17149     17147     17150     17152     17149     17147     17150     17153
     17150     17153     17156     17157     17150     17153     17156     17158
     17150     17153     17156     17159     17151     17150     17153     17154
     17151     17150     17153     17155     17151     17150     17153     17156
     17152     17150     17153     17154     17152     17150     17153     17155
     17152     17150     17153     17156     17153     17156     17159     17160
     17153     17156     17159     17161     17153     17156     17159     17162
     17154     17153     17156     17157     17154     17153     17156     17158
     17154     17153     17156     17159     17155     17153     17156     17157
     17155     17153     17156     17158     17155     17153     17156     17159
     17156     17159     17162     17163     17156     17159     17162     17164
     17156     17159     17162     17165     17157     17156     17159     17160
     17157     17156     17159     17161     17157     17156     17159     17162
     17158     17156     17159     17160     17158     17156     17159     17161
     17158     17156     17159     17162     17159     17162     17165     17166
     17159     17162     17165     17167     17159     17162     17165     17168
     17160     17159     17162     17163     17160     17159     17162     17164
     17160     17159     17162     17165     17161     17159     17162     17163
     17161     17159     17162     17164     17161     17159     17162     17165
     17162     17165     17168     17169     17162     17165     17168     17170
     17162     17165     17168     17171     17163     17162     17165     17166
     17163     17162     17165     17167     17163     17162     17165     17168
     17164     17162     17165     17166     17164     17162     17165     17167
     17164     17162     17165     17168     17165     17168     17171     17172
     17165     17168     17171     17173     17165     17168     17171     17174
     17166     17165     17168     17169     17166     17165     17168     17170
     17166     17165     17168     17171     17167     17165     17168     17169
     17167     17165     17168     17170     17167     17165     17168     17171
     17168     17171     17174     17175     17168     17171     17174     17176
     17168     17171     17174     17177     17169     17168     17171     17172
     17169     17168     17171     17173     17169     17168     17171     17174
     17170     17168     17171     17172     17170     17168     17171     17173
     17170     17168     17171     17174     17171     17174     17177     17178
     17171     17174     17177     17179     17171     17174     17177     17180
     17172     17171     17174     17175     17172     17171     17174     17176
     17172     17171     17174     17177     17173     17171     17174     17175
     17173     17171     17174     17176     17173     17171     17174     17177
     17175     17174     17177     17178     17175     17174     17177     17179
     17175     17174     17177     17180     17176     17174     17177     17178
     17176     17174     17177     17179     17176     17174     17177     17180
     17181     17185     17188     17189     17181     17185     17188     17190
     17181     17185     17188     17194     17182     17181     17185     17186
     17182     17181     17185     17187     17182     17181     17185     17188
     17183     17181     17185     17186     17183     17181     17185     17187
     17183     17181     17185     17188     17184     17181     17185     17186
     17184     17181     17185     17187     17184     17181     17185     17188
     17185     17188     17194     17191     17186     17185     17188     17189
     17186     17185     17188     17190     17186     17185     17188     17194
     17187     17185     17188     17189     17187     17185     17188     17190
     17187     17185     17188     17194     17188     17194     17191     17192
     17188     17194     17191     17193     17188     17194     17191     17195
     17189     17188     17194     17191     17190     17188     17194     17191
     17191     17195     17196     17197     17191     17195     17196     17198
     17191     17195     17196     17199     17192     17191     17195     17196
     17193     17191     17195     17196     17194     17191     17195     17196
     17195     17196     17199     17200     17195     17196     17199     17201
     17195     17196     17199     17207     17196     17199     17201     17202
     17196     17199     17207     17208     17196     17199     17207     17209
     17196     17199     17207     17210     17197     17196     17199     17200
     17197     17196     17199     17201     17197     17196     17199     17207
     17198     17196     17199     17200     17198     17196     17199     17201
     17198     17196     17199     17207     17199     17201     17202     17203
     17199     17201     17202     17204     17199     17207     17210     17211
     17200     17199     17201     17202     17200     17199     17207     17208
     17200     17199     17207     17209     17200     17199     17207     17210
     17201     17199     17207     17208     17201     17199     17207     17209
     17201     17199     17207     17210     17201     17202     17204     17205
     17201     17202     17204     17206     17201     17202     17204     17216
     17202     17201     17199     17207     17202     17204     17216     17217
     17202     17204     17216     17218     17202     17204     17216     17219
     17203     17202     17204     17205     17203     17202     17204     17206
     17203     17202     17204     17216     17204     17216     17219     17220
     17204     17216     17219     17221     17204     17216     17219     17222
     17205     17204     17216     17217     17205     17204     17216     17218
     17205     17204     17216     17219     17206     17204     17216     17217
     17206     17204     17216     17218     17206     17204     17216     17219
     17207     17210     17211     17212     17207     17210     17211     17213
     17208     17207     17210     17211     17209     17207     17210     17211
     17210     17211     17213     17214     17210     17211     17213     17215
     17210     17211     17213     17263     17211     17213     17263     17264
     17211     17213     17263     17265     17211     17213     17263     17266
     17212     17211     17213     17214     17212     17211     17213     17215
     17212     17211     17213     17263     17213     17263     17266     17267
     17213     17263     17266     17268     17213     17263     17266     17269
     17214     17213     17263     17264     17214     17213     17263     17265
     17214     17213     17263     17266     17215     17213     17263     17264
     17215     17213     17263     17265     17215     17213     17263     17266
     17216     17219     17222     17223     17216     17219     17222     17224
     17216     17219     17222     17225     17217     17216     17219     17220
     17217     17216     17219     17221     17217     17216     17219     17222
     17218     17216     17219     17220     17218     17216     17219     17221
     17218     17216     17219     17222     17219     17222     17225     17226
     17219     17222     17225     17227     17219     17222     17225     17228
     17220     17219     17222     17223     17220     17219     17222     17224
     17220     17219     17222     17225     17221     17219     17222     17223
     17221     17219     17222     17224     17221     17219     17222     17225
     17222     17225     17228     17229     17222     17225     17228     17230
     17222     17225     17228     17231     17223     17222     17225     17226
     17223     17222     17225     17227     17223     17222     17225     17228
     17224     17222     17225     17226     17224     17222     17225     17227
     17224     17222     17225     17228     17225     17228     17231     17232
     17225     17228     17231     17233     17225     17228     17231     17234
     17226     17225     17228     17229     17226     17225     17228     17230
     17226     17225     17228     17231     17227     17225     17228     17229
     17227     17225     17228     17230     17227     17225     17228     17231
     17228     17231     17234     17235     17228     17231     17234     17236
     17229     17228     17231     17232     17229     17228     17231     17233
     17229     17228     17231     17234     17230     17228     17231     17232
     17230     17228     17231     17233     17230     17228     17231     17234
     17231     17234     17236     17237     17231     17234     17236     17238
     17232     17231     17234     17235     17232     17231     17234     17236
     17233     17231     17234     17235     17233     17231     17234     17236
     17234     17236     17238     17239     17234     17236     17238     17240
     17234     17236     17238     17241     17235     17234     17236     17237
     17235     17234     17236     17238     17236     17238     17241     17242
     17236     17238     17241     17243     17236     17238     17241     17244
     17237     17236     17238     17239     17237     17236     17238     17240
     17237     17236     17238     17241     17238     17241     17244     17245
     17238     17241     17244     17246     17238     17241     17244     17247
     17239     17238     17241     17242     17239     17238     17241     17243
     17239     17238     17241     17244     17240     17238     17241     17242
     17240     17238     17241     17243     17240     17238     17241     17244
     17241     17244     17247     17248     17241     17244     17247     17249
     17241     17244     17247     17250     17242     17241     17244     17245
     17242     17241     17244     17246     17242     17241     17244     17247
     17243     17241     17244     17245     17243     17241     17244     17246
     17243     17241     17244     17247     17244     17247     17250     17251
     17244     17247     17250     17252     17244     17247     17250     17253
     17245     17244     17247     17248     17245     17244     17247     17249
     17245     17244     17247     17250     17246     17244     17247     17248
     17246     17244     17247     17249     17246     17244     17247     17250
     17247     17250     17253     17254     17247     17250     17253     17255
     17247     17250     17253     17256     17248     17247     17250     17251
     17248     17247     17250     17252     17248     17247     17250     17253
     17249     17247     17250     17251     17249     17247     17250     17252
     17249     17247     17250     17253     17250     17253     17256     17257
     17250     17253     17256     17258     17250     17253     17256     17259
     17251     17250     17253     17254     17251     17250     17253     17255
     17251     17250     17253     17256     17252     17250     17253     17254
     17252     17250     17253     17255     17252     17250     17253     17256
     17253     17256     17259     17260     17253     17256     17259     17261
     17253     17256     17259     17262     17254     17253     17256     17257
     17254     17253     17256     17258     17254     17253     17256     17259
     17255     17253     17256     17257     17255     17253     17256     17258
     17255     17253     17256     17259     17257     17256     17259     17260
     17257     17256     17259     17261     17257     17256     17259     17262
     17258     17256     17259     17260     17258     17256     17259     17261
     17258     17256     17259     17262     17263     17266     17269     17270
     17263     17266     17269     17271     17263     17266     17269     17272
     17264     17263     17266     17267     17264     17263     17266     17268
     17264     17263     17266     17269     17265     17263     17266     17267
     17265     17263     17266     17268     17265     17263     17266     17269
     17266     17269     17272     17273     17266     17269     17272     17274
     17266     17269     17272     17275     17267     17266     17269     17270
     17267     17266     17269     17271     17267     17266     17269     17272
     17268     17266     17269     17270     17268     17266     17269     17271
     17268     17266     17269     17272     17269     17272     17275     17276
     17269     17272     17275     17277     17269     17272     17275     17278
     17270     17269     17272     17273     17270     17269     17272     17274
     17270     17269     17272     17275     17271     17269     17272     17273
     17271     17269     17272     17274     17271     17269     17272     17275
     17272     17275     17278     17279     17272     17275     17278     17280
     17272     17275     17278     17281     17273     17272     17275     17276
     17273     17272     17275     17277     17273     17272     17275     17278
     17274     17272     17275     17276     17274     17272     17275     17277
     17274     17272     17275     17278     17275     17278     17281     17282
     17275     17278     17281     17283     17275     17278     17281     17284
     17276     17275     17278     17279     17276     17275     17278     17280
     17276     17275     17278     17281     17277     17275     17278     17279
     17277     17275     17278     17280     17277     17275     17278     17281
     17278     17281     17284     17285     17278     17281     17284     17286
     17278     17281     17284     17287     17279     17278     17281     17282
     17279     17278     17281     17283     17279     17278     17281     17284
     17280     17278     17281     17282     17280     17278     17281     17283
     17280     17278     17281     17284     17281     17284     17287     17288
     17281     17284     17287     17289     17281     17284     17287     17290
     17282     17281     17284     17285     17282     17281     17284     17286
     17282     17281     17284     17287     17283     17281     17284     17285
     17283     17281     17284     17286     17283     17281     17284     17287
     17284     17287     17290     17291     17284     17287     17290     17292
     17284     17287     17290     17293     17285     17284     17287     17288
     17285     17284     17287     17289     17285     17284     17287     17290
     17286     17284     17287     17288     17286     17284     17287     17289
     17286     17284     17287     17290     17287     17290     17293     17294
     17287     17290     17293     17295     17287     17290     17293     17296
     17288     17287     17290     17291     17288     17287     17290     17292
     17288     17287     17290     17293     17289     17287     17290     17291
     17289     17287     17290     17292     17289     17287     17290     17293
     17290     17293     17296     17297     17290     17293     17296     17298
     17290     17293     17296     17299     17291     17290     17293     17294
     17291     17290     17293     17295     17291     17290     17293     17296
     17292     17290     17293     17294     17292     17290     17293     17295
     17292     17290     17293     17296     17293     17296     17299     17300
     17293     17296     17299     17301     17293     17296     17299     17302
     17294     17293     17296     17297     17294     17293     17296     17298
     17294     17293     17296     17299     17295     17293     17296     17297
     17295     17293     17296     17298     17295     17293     17296     17299
     17296     17299     17302     17303     17296     17299     17302     17304
     17296     17299     17302     17305     17297     17296     17299     17300
     17297     17296     17299     17301     17297     17296     17299     17302
     17298     17296     17299     17300     17298     17296     17299     17301
     17298     17296     17299     17302     17299     17302     17305     17306
     17299     17302     17305     17307     17299     17302     17305     17308
     17300     17299     17302     17303     17300     17299     17302     17304
     17300     17299     17302     17305     17301     17299     17302     17303
     17301     17299     17302     17304     17301     17299     17302     17305
     17302     17305     17308     17309     17302     17305     17308     17310
     17302     17305     17308     17311     17303     17302     17305     17306
     17303     17302     17305     17307     17303     17302     17305     17308
     17304     17302     17305     17306     17304     17302     17305     17307
     17304     17302     17305     17308     17306     17305     17308     17309
     17306     17305     17308     17310     17306     17305     17308     17311
     17307     17305     17308     17309     17307     17305     17308     17310
     17307     17305     17308     17311     17312     17316     17318     17319
     17312     17316     17320     17321     17312     17316     17320     17322
     17312     17316     17320     17324     17312     17332     17328     17324
     17312     17332     17328     17329     17312     17332     17328     17330
     17312     17332     17337     17334     17313     17312     17314     17315
     17313     17312     17316     17317     17313     17312     17316     17318
     17313     17312     17316     17320     17313     17312     17332     17328
     17313     17312     17332     17333     17313     17312     17332     17337
     17314     17312     17316     17317     17314     17312     17316     17318
     17314     17312     17316     17320     17314     17312     17332     17328
     17314     17312     17332     17333     17314     17312     17332     17337
     17315     17314     17312     17316     17315     17314     17312     17332
     17316     17312     17332     17328     17316     17312     17332     17333
     17316     17312     17332     17337     17316     17320     17322     17323
     17316     17320     17324     17325     17316     17320     17324     17326
     17316     17320     17324     17328     17317     17316     17312     17332
     17317     17316     17318     17319     17317     17316     17320     17321
     17317     17316     17320     17322     17317     17316     17320     17324
     17318     17316     17312     17332     17318     17316     17320     17321
     17318     17316     17320     17322     17318     17316     17320     17324
     17319     17318     17316     17320     17320     17316     17312     17332
     17320     17324     17326     17327     17320     17324     17328     17329
     17320     17324     17328     17330     17320     17324     17328     17332
     17321     17320     17322     17323     17321     17320     17324     17325
     17321     17320     17324     17326     17321     17320     17324     17328
     17322     17320     17324     17325     17322     17320     17324     17326
     17322     17320     17324     17328     17323     17322     17320     17324
     17324     17328     17330     17331     17324     17328     17332     17333
     17324     17328     17332     17337     17325     17324     17326     17327
     17325     17324     17328     17329     17325     17324     17328     17330
     17325     17324     17328     17332     17326     17324     17328     17329
     17326     17324     17328     17330     17326     17324     17328     17332
     17327     17326     17324     17328     17328     17332     17337     17334
     17329     17328     17330     17331     17329     17328     17332     17333
     17329     17328     17332     17337     17330     17328     17332     17333
     17330     17328     17332     17337     17331     17330     17328     17332
     17332     17337     17334     17335     17332     17337     17334     17336
     17332     17337     17334     17338     17333     17332     17337     17334
     17334     17338     17339     17340     17334     17338     17339     17341
     17334     17338     17339     17342     17335     17334     17338     17339
     17336     17334     17338     17339     17337     17334     17338     17339
     17338     17339     17342     17343     17338     17339     17342     17344
     17338     17339     17342     17350     17339     17342     17344     17345
     17339     17342     17350     17351     17339     17342     17350     17352
     17339     17342     17350     17353     17340     17339     17342     17343
     17340     17339     17342     17344     17340     17339     17342     17350
     17341     17339     17342     17343     17341     17339     17342     17344
     17341     17339     17342     17350     17342     17344     17345     17346
     17342     17344     17345     17347     17342     17350     17353     17354
     17343     17342     17344     17345     17343     17342     17350     17351
     17343     17342     17350     17352     17343     17342     17350     17353
     17344     17342     17350     17351     17344     17342     17350     17352
     17344     17342     17350     17353     17344     17345     17347     17348
     17344     17345     17347     17349     17344     17345     17347     17359
     17345     17344     17342     17350     17345     17347     17359     17360
     17345     17347     17359     17361     17345     17347     17359     17362
     17346     17345     17347     17348     17346     17345     17347     17349
     17346     17345     17347     17359     17347     17359     17362     17363
     17347     17359     17362     17364     17347     17359     17362     17365
     17348     17347     17359     17360     17348     17347     17359     17361
     17348     17347     17359     17362     17349     17347     17359     17360
     17349     17347     17359     17361     17349     17347     17359     17362
     17350     17353     17354     17355     17350     17353     17354     17356
     17351     17350     17353     17354     17352     17350     17353     17354
     17353     17354     17356     17357     17353     17354     17356     17358
     17353     17354     17356     17406     17354     17356     17406     17407
     17354     17356     17406     17408     17354     17356     17406     17409
     17355     17354     17356     17357     17355     17354     17356     17358
     17355     17354     17356     17406     17356     17406     17409     17410
     17356     17406     17409     17411     17356     17406     17409     17412
     17357     17356     17406     17407     17357     17356     17406     17408
     17357     17356     17406     17409     17358     17356     17406     17407
     17358     17356     17406     17408     17358     17356     17406     17409
     17359     17362     17365     17366     17359     17362     17365     17367
     17360     17359     17362     17363     17360     17359     17362     17364
     17360     17359     17362     17365     17361     17359     17362     17363
     17361     17359     17362     17364     17361     17359     17362     17365
     17362     17365     17367     17368     17362     17365     17367     17369
     17363     17362     17365     17366     17363     17362     17365     17367
     17364     17362     17365     17366     17364     17362     17365     17367
     17365     17367     17369     17370     17365     17367     17369     17371
     17365     17367     17369     17372     17366     17365     17367     17368
     17366     17365     17367     17369     17367     17369     17372     17373
     17367     17369     17372     17374     17368     17367     17369     17370
     17368     17367     17369     17371     17368     17367     17369     17372
     17369     17372     17374     17375     17369     17372     17374     17376
     17370     17369     17372     17373     17370     17369     17372     17374
     17371     17369     17372     17373     17371     17369     17372     17374
     17372     17374     17376     17377     17372     17374     17376     17378
     17372     17374     17376     17379     17373     17372     17374     17375
     17373     17372     17374     17376     17374     17376     17379     17380
     17374     17376     17379     17381     17375     17374     17376     17377
     17375     17374     17376     17378     17375     17374     17376     17379
     17376     17379     17381     17382     17376     17379     17381     17383
     17377     17376     17379     17380     17377     17376     17379     17381
     17378     17376     17379     17380     17378     17376     17379     17381
     17379     17381     17383     17384     17379     17381     17383     17385
     17379     17381     17383     17386     17380     17379     17381     17382
     17380     17379     17381     17383     17381     17383     17386     17387
     17381     17383     17386     17388     17382     17381     17383     17384
     17382     17381     17383     17385     17382     17381     17383     17386
     17383     17386     17388     17389     17383     17386     17388     17390
     17384     17383     17386     17387     17384     17383     17386     17388
     17385     17383     17386     17387     17385     17383     17386     17388
     17386     17388     17390     17391     17386     17388     17390     17392
     17386     17388     17390     17393     17387     17386     17388     17389
     17387     17386     17388     17390     17388     17390     17393     17394
     17388     17390     17393     17395     17388     17390     17393     17396
     17389     17388     17390     17391     17389     17388     17390     17392
     17389     17388     17390     17393     17390     17393     17396     17397
     17390     17393     17396     17398     17390     17393     17396     17399
     17391     17390     17393     17394     17391     17390     17393     17395
     17391     17390     17393     17396     17392     17390     17393     17394
     17392     17390     17393     17395     17392     17390     17393     17396
     17393     17396     17399     17400     17393     17396     17399     17401
     17393     17396     17399     17402     17394     17393     17396     17397
     17394     17393     17396     17398     17394     17393     17396     17399
     17395     17393     17396     17397     17395     17393     17396     17398
     17395     17393     17396     17399     17396     17399     17402     17403
     17396     17399     17402     17404     17396     17399     17402     17405
     17397     17396     17399     17400     17397     17396     17399     17401
     17397     17396     17399     17402     17398     17396     17399     17400
     17398     17396     17399     17401     17398     17396     17399     17402
     17400     17399     17402     17403     17400     17399     17402     17404
     17400     17399     17402     17405     17401     17399     17402     17403
     17401     17399     17402     17404     17401     17399     17402     17405
     17406     17409     17412     17413     17406     17409     17412     17414
     17406     17409     17412     17415     17407     17406     17409     17410
     17407     17406     17409     17411     17407     17406     17409     17412
     17408     17406     17409     17410     17408     17406     17409     17411
     17408     17406     17409     17412     17409     17412     17415     17416
     17409     17412     17415     17417     17409     17412     17415     17418
     17410     17409     17412     17413     17410     17409     17412     17414
     17410     17409     17412     17415     17411     17409     17412     17413
     17411     17409     17412     17414     17411     17409     17412     17415
     17412     17415     17418     17419     17412     17415     17418     17420
     17412     17415     17418     17421     17413     17412     17415     17416
     17413     17412     17415     17417     17413     17412     17415     17418
     17414     17412     17415     17416     17414     17412     17415     17417
     17414     17412     17415     17418     17415     17418     17421     17422
     17415     17418     17421     17423     17415     17418     17421     17424
     17416     17415     17418     17419     17416     17415     17418     17420
     17416     17415     17418     17421     17417     17415     17418     17419
     17417     17415     17418     17420     17417     17415     17418     17421
     17418     17421     17424     17425     17418     17421     17424     17426
     17418     17421     17424     17427     17419     17418     17421     17422
     17419     17418     17421     17423     17419     17418     17421     17424
     17420     17418     17421     17422     17420     17418     17421     17423
     17420     17418     17421     17424     17421     17424     17427     17428
     17421     17424     17427     17429     17421     17424     17427     17430
     17422     17421     17424     17425     17422     17421     17424     17426
     17422     17421     17424     17427     17423     17421     17424     17425
     17423     17421     17424     17426     17423     17421     17424     17427
     17424     17427     17430     17431     17424     17427     17430     17432
     17424     17427     17430     17433     17425     17424     17427     17428
     17425     17424     17427     17429     17425     17424     17427     17430
     17426     17424     17427     17428     17426     17424     17427     17429
     17426     17424     17427     17430     17427     17430     17433     17434
     17427     17430     17433     17435     17427     17430     17433     17436
     17428     17427     17430     17431     17428     17427     17430     17432
     17428     17427     17430     17433     17429     17427     17430     17431
     17429     17427     17430     17432     17429     17427     17430     17433
     17430     17433     17436     17437     17430     17433     17436     17438
     17430     17433     17436     17439     17431     17430     17433     17434
     17431     17430     17433     17435     17431     17430     17433     17436
     17432     17430     17433     17434     17432     17430     17433     17435
     17432     17430     17433     17436     17433     17436     17439     17440
     17433     17436     17439     17441     17433     17436     17439     17442
     17434     17433     17436     17437     17434     17433     17436     17438
     17434     17433     17436     17439     17435     17433     17436     17437
     17435     17433     17436     17438     17435     17433     17436     17439
     17436     17439     17442     17443     17436     17439     17442     17444
     17436     17439     17442     17445     17437     17436     17439     17440
     17437     17436     17439     17441     17437     17436     17439     17442
     17438     17436     17439     17440     17438     17436     17439     17441
     17438     17436     17439     17442     17439     17442     17445     17446
     17439     17442     17445     17447     17439     17442     17445     17448
     17440     17439     17442     17443     17440     17439     17442     17444
     17440     17439     17442     17445     17441     17439     17442     17443
     17441     17439     17442     17444     17441     17439     17442     17445
     17442     17445     17448     17449     17442     17445     17448     17450
     17442     17445     17448     17451     17443     17442     17445     17446
     17443     17442     17445     17447     17443     17442     17445     17448
     17444     17442     17445     17446     17444     17442     17445     17447
     17444     17442     17445     17448     17445     17448     17451     17452
     17445     17448     17451     17453     17445     17448     17451     17454
     17446     17445     17448     17449     17446     17445     17448     17450
     17446     17445     17448     17451     17447     17445     17448     17449
     17447     17445     17448     17450     17447     17445     17448     17451
     17449     17448     17451     17452     17449     17448     17451     17453
     17449     17448     17451     17454     17450     17448     17451     17452
     17450     17448     17451     17453     17450     17448     17451     17454
     17455     17468     17471     17472     17455     17468     17471     17473
     17455     17468     17471     17478     17456     17455     17460     17461
     17456     17455     17460     17462     17456     17455     17460     17463
     17456     17455     17464     17465     17456     17455     17464     17466
     17456     17455     17464     17467     17456     17455     17468     17469
     17456     17455     17468     17470     17456     17455     17468     17471
     17457     17456     17455     17460     17457     17456     17455     17464
     17457     17456     17455     17468     17458     17456     17455     17460
     17458     17456     17455     17464     17458     17456     17455     17468
     17459     17456     17455     17460     17459     17456     17455     17464
     17459     17456     17455     17468     17460     17455     17464     17465
     17460     17455     17464     17466     17460     17455     17464     17467
     17460     17455     17468     17469     17460     17455     17468     17470
     17460     17455     17468     17471     17461     17460     17455     17464
     17461     17460     17455     17468     17462     17460     17455     17464
     17462     17460     17455     17468     17463     17460     17455     17464
     17463     17460     17455     17468     17464     17455     17468     17469
     17464     17455     17468     17470     17464     17455     17468     17471
     17465     17464     17455     17468     17466     17464     17455     17468
     17467     17464     17455     17468     17468     17471     17478     17474
     17469     17468     17471     17472     17469     17468     17471     17473
     17469     17468     17471     17478     17470     17468     17471     17472
     17470     17468     17471     17473     17470     17468     17471     17478
     17471     17478     17474     17475     17471     17478     17474     17476
     17471     17478     17474     17477     17472     17471     17478     17474
     17473     17471     17478     17474     17474     17477     17479     17480
     17474     17477     17479     17481     17474     17477     17479     17484
     17475     17474     17477     17479     17476     17474     17477     17479
     17477     17479     17484     17482     17477     17479     17484     17485
     17477     17479     17484     17486     17478     17474     17477     17479
     17479     17484     17482     17483     17479     17484     17482     17534
     17479     17484     17486     17487     17479     17484     17486     17488
     17479     17484     17486     17490     17480     17479     17484     17482
     17480     17479     17484     17485     17480     17479     17484     17486
     17481     17479     17484     17482     17481     17479     17484     17485
     17481     17479     17484     17486     17482     17484     17486     17487
     17482     17484     17486     17488     17482     17484     17486     17490
     17482     17534     17536     17537     17482     17534     17536     17538
     17482     17534     17536     17539     17483     17482     17484     17485
     17483     17482     17484     17486     17483     17482     17534     17535
     17483     17482     17534     17536     17484     17482     17534     17535
     17484     17482     17534     17536     17484     17486     17488     17489
     17484     17486     17490     17491     17484     17486     17490     17492
     17485     17484     17482     17534     17485     17484     17486     17487
     17485     17484     17486     17488     17485     17484     17486     17490
     17486     17484     17482     17534     17486     17490     17492     17493
     17486     17490     17492     17494     17487     17486     17488     17489
     17487     17486     17490     17491     17487     17486     17490     17492
     17488     17486     17490     17491     17488     17486     17490     17492
     17489     17488     17486     17490     17490     17492     17494     17495
     17490     17492     17494     17496     17490     17492     17494     17497
     17491     17490     17492     17493     17491     17490     17492     17494
     17492     17494     17497     17498     17492     17494     17497     17499
     17492     17494     17497     17500     17493     17492     17494     17495
     17493     17492     17494     17496     17493     17492     17494     17497
     17494     17497     17500     17501     17494     17497     17500     17502
     17494     17497     17500     17503     17495     17494     17497     17498
     17495     17494     17497     17499     17495     17494     17497     17500
     17496     17494     17497     17498     17496     17494     17497     17499
     17496     17494     17497     17500     17497     17500     17503     17504
     17497     17500     17503     17505     17497     17500     17503     17506
     17498     17497     17500     17501     17498     17497     17500     17502
     17498     17497     17500     17503     17499     17497     17500     17501
     17499     17497     17500     17502     17499     17497     17500     17503
     17500     17503     17506     17507     17500     17503     17506     17508
     17500     17503     17506     17509     17501     17500     17503     17504
     17501     17500     17503     17505     17501     17500     17503     17506
     17502     17500     17503     17504     17502     17500     17503     17505
     17502     17500     17503     17506     17503     17506     17509     17510
     17503     17506     17509     17511     17503     17506     17509     17512
     17504     17503     17506     17507     17504     17503     17506     17508
     17504     17503     17506     17509     17505     17503     17506     17507
     17505     17503     17506     17508     17505     17503     17506     17509
     17506     17509     17512     17513     17506     17509     17512     17514
     17506     17509     17512     17515     17507     17506     17509     17510
     17507     17506     17509     17511     17507     17506     17509     17512
     17508     17506     17509     17510     17508     17506     17509     17511
     17508     17506     17509     17512     17509     17512     17515     17516
     17509     17512     17515     17517     17509     17512     17515     17518
     17510     17509     17512     17513     17510     17509     17512     17514
     17510     17509     17512     17515     17511     17509     17512     17513
     17511     17509     17512     17514     17511     17509     17512     17515
     17512     17515     17518     17519     17512     17515     17518     17520
     17512     17515     17518     17521     17513     17512     17515     17516
     17513     17512     17515     17517     17513     17512     17515     17518
     17514     17512     17515     17516     17514     17512     17515     17517
     17514     17512     17515     17518     17515     17518     17521     17522
     17515     17518     17521     17523     17515     17518     17521     17524
     17516     17515     17518     17519     17516     17515     17518     17520
     17516     17515     17518     17521     17517     17515     17518     17519
     17517     17515     17518     17520     17517     17515     17518     17521
     17518     17521     17524     17525     17518     17521     17524     17526
     17518     17521     17524     17527     17519     17518     17521     17522
     17519     17518     17521     17523     17519     17518     17521     17524
     17520     17518     17521     17522     17520     17518     17521     17523
     17520     17518     17521     17524     17521     17524     17527     17528
     17521     17524     17527     17529     17521     17524     17527     17530
     17522     17521     17524     17525     17522     17521     17524     17526
     17522     17521     17524     17527     17523     17521     17524     17525
     17523     17521     17524     17526     17523     17521     17524     17527
     17524     17527     17530     17531     17524     17527     17530     17532
     17524     17527     17530     17533     17525     17524     17527     17528
     17525     17524     17527     17529     17525     17524     17527     17530
     17526     17524     17527     17528     17526     17524     17527     17529
     17526     17524     17527     17530     17528     17527     17530     17531
     17528     17527     17530     17532     17528     17527     17530     17533
     17529     17527     17530     17531     17529     17527     17530     17532
     17529     17527     17530     17533     17534     17536     17539     17540
     17534     17536     17539     17541     17534     17536     17539     17542
     17535     17534     17536     17537     17535     17534     17536     17538
     17535     17534     17536     17539     17536     17539     17542     17543
     17536     17539     17542     17544     17536     17539     17542     17545
     17537     17536     17539     17540     17537     17536     17539     17541
     17537     17536     17539     17542     17538     17536     17539     17540
     17538     17536     17539     17541     17538     17536     17539     17542
     17539     17542     17545     17546     17539     17542     17545     17547
     17539     17542     17545     17548     17540     17539     17542     17543
     17540     17539     17542     17544     17540     17539     17542     17545
     17541     17539     17542     17543     17541     17539     17542     17544
     17541     17539     17542     17545     17542     17545     17548     17549
     17542     17545     17548     17550     17542     17545     17548     17551
     17543     17542     17545     17546     17543     17542     17545     17547
     17543     17542     17545     17548     17544     17542     17545     17546
     17544     17542     17545     17547     17544     17542     17545     17548
     17545     17548     17551     17552     17545     17548     17551     17553
     17545     17548     17551     17554     17546     17545     17548     17549
     17546     17545     17548     17550     17546     17545     17548     17551
     17547     17545     17548     17549     17547     17545     17548     17550
     17547     17545     17548     17551     17548     17551     17554     17555
     17548     17551     17554     17556     17548     17551     17554     17557
     17549     17548     17551     17552     17549     17548     17551     17553
     17549     17548     17551     17554     17550     17548     17551     17552
     17550     17548     17551     17553     17550     17548     17551     17554
     17551     17554     17557     17558     17551     17554     17557     17559
     17552     17551     17554     17555     17552     17551     17554     17556
     17552     17551     17554     17557     17553     17551     17554     17555
     17553     17551     17554     17556     17553     17551     17554     17557
     17554     17557     17559     17560     17554     17557     17559     17561
     17555     17554     17557     17558     17555     17554     17557     17559
     17556     17554     17557     17558     17556     17554     17557     17559
     17557     17559     17561     17562     17557     17559     17561     17563
     17557     17559     17561     17564     17558     17557     17559     17560
     17558     17557     17559     17561     17559     17561     17564     17565
     17559     17561     17564     17566     17559     17561     17564     17567
     17560     17559     17561     17562     17560     17559     17561     17563
     17560     17559     17561     17564     17561     17564     17567     17568
     17561     17564     17567     17569     17561     17564     17567     17570
     17562     17561     17564     17565     17562     17561     17564     17566
     17562     17561     17564     17567     17563     17561     17564     17565
     17563     17561     17564     17566     17563     17561     17564     17567
     17564     17567     17570     17571     17564     17567     17570     17572
     17564     17567     17570     17573     17565     17564     17567     17568
     17565     17564     17567     17569     17565     17564     17567     17570
     17566     17564     17567     17568     17566     17564     17567     17569
     17566     17564     17567     17570     17567     17570     17573     17574
     17567     17570     17573     17575     17567     17570     17573     17576
     17568     17567     17570     17571     17568     17567     17570     17572
     17568     17567     17570     17573     17569     17567     17570     17571
     17569     17567     17570     17572     17569     17567     17570     17573
     17570     17573     17576     17577     17570     17573     17576     17578
     17570     17573     17576     17579     17571     17570     17573     17574
     17571     17570     17573     17575     17571     17570     17573     17576
     17572     17570     17573     17574     17572     17570     17573     17575
     17572     17570     17573     17576     17573     17576     17579     17580
     17573     17576     17579     17581     17573     17576     17579     17582
     17574     17573     17576     17577     17574     17573     17576     17578
     17574     17573     17576     17579     17575     17573     17576     17577
     17575     17573     17576     17578     17575     17573     17576     17579
     17576     17579     17582     17583     17576     17579     17582     17584
     17576     17579     17582     17585     17577     17576     17579     17580
     17577     17576     17579     17581     17577     17576     17579     17582
     17578     17576     17579     17580     17578     17576     17579     17581
     17578     17576     17579     17582     17580     17579     17582     17583
     17580     17579     17582     17584     17580     17579     17582     17585
     17581     17579     17582     17583     17581     17579     17582     17584
     17581     17579     17582     17585     17586     17590     17593     17594
     17586     17590     17593     17624     17586     17632     17629     17624
     17586     17632     17629     17630     17586     17632     17629     17631
     17587     17586     17588     17589     17587     17586     17590     17591
     17587     17586     17590     17592     17587     17586     17590     17593
     17587     17586     17632     17629     17587     17586     17632     17633
     17587     17586     17632     17634     17588     17586     17590     17591
     17588     17586     17590     17592     17588     17586     17590     17593
     17588     17586     17632     17629     17588     17586     17632     17633
     17588     17586     17632     17634     17589     17588     17586     17590
     17589     17588     17586     17632     17590     17586     17632     17629
     17590     17586     17632     17633     17590     17586     17632     17634
     17590     17593     17594     17595     17590     17593     17594     17596
     17590     17593     17624     17622     17590     17593     17624     17625
     17590     17593     17624     17629     17591     17590     17586     17632
     17591     17590     17593     17594     17591     17590     17593     17624
     17592     17590     17586     17632     17592     17590     17593     17594
     17592     17590     17593     17624     17593     17590     17586     17632
     17593     17594     17596     17597     17593     17594     17596     17598
     17593     17594     17596     17599     17593     17624     17622     17599
     17593     17624     17622     17619     17593     17624     17622     17623
     17593     17624     17625     17626     17593     17624     17625     17627
     17593     17624     17625     17628     17593     17624     17629     17630
     17593     17624     17629     17631     17593     17624     17629     17632
     17594     17593     17624     17622     17594     17593     17624     17625
     17594     17593     17624     17629     17594     17596     17599     17600
     17594     17596     17599     17601     17594     17596     17599     17622
     17595     17594     17593     17624     17595     17594     17596     17597
     17595     17594     17596     17598     17595     17594     17596     17599
     17596     17594     17593     17624     17596     17599     17601     17602
     17596     17599     17601     17603     17596     17599     17601     17611
     17596     17599     17622     17619     17596     17599     17622     17623
     17596     17599     17622     17624     17597     17596     17599     17600
     17597     17596     17599     17601     17597     17596     17599     17622
     17598     17596     17599     17600     17598     17596     17599     17601
     17598     17596     17599     17622     17599     17601     17603     17604
     17599     17601     17603     17605     17599     17601     17603     17606
     17599     17601     17611     17609     17599     17601     17611     17612
     17599     17601     17611     17616     17599     17622     17619     17616
     17599     17622     17619     17620     17599     17622     17619     17621
     17599     17622     17624     17625     17599     17622     17624     17629
     17600     17599     17601     17602     17600     17599     17601     17603
     17600     17599     17601     17611     17600     17599     17622     17619
     17600     17599     17622     17623     17600     17599     17622     17624
     17601     17599     17622     17619     17601     17599     17622     17623
     17601     17599     17622     17624     17601     17603     17606     17607
     17601     17603     17606     17608     17601     17603     17606     17609
     17601     17611     17609     17606     17601     17611     17609     17610
     17601     17611     17609     17635     17601     17611     17612     17613
     17601     17611     17612     17614     17601     17611     17612     17615
     17601     17611     17616     17617     17601     17611     17616     17618
     17601     17611     17616     17619     17602     17601     17599     17622
     17602     17601     17603     17604     17602     17601     17603     17605
     17602     17601     17603     17606     17602     17601     17611     17609
     17602     17601     17611     17612     17602     17601     17611     17616
     17603     17601     17599     17622     17603     17601     17611     17609
     17603     17601     17611     17612     17603     17601     17611     17616
     17603     17606     17609     17610     17603     17606     17609     17611
     17603     17606     17609     17635     17604     17603     17601     17611
     17604     17603     17606     17607     17604     17603     17606     17608
     17604     17603     17606     17609     17605     17603     17601     17611
     17605     17603     17606     17607     17605     17603     17606     17608
     17605     17603     17606     17609     17606     17603     17601     17611
     17606     17609     17611     17612     17606     17609     17611     17616
     17606     17609     17635     17636     17606     17609     17635     17637
     17606     17609     17635     17641     17607     17606     17609     17610
     17607     17606     17609     17611     17607     17606     17609     17635
     17608     17606     17609     17610     17608     17606     17609     17611
     17608     17606     17609     17635     17609     17611     17612     17613
     17609     17611     17612     17614     17609     17611     17612     17615
     17609     17611     17616     17617     17609     17611     17616     17618
     17609     17611     17616     17619     17609     17635     17637     17638
     17609     17635     17637     17639     17609     17635     17637     17640
     17609     17635     17641     17642     17609     17635     17641     17643
     17609     17635     17641     17644     17610     17609     17611     17612
     17610     17609     17611     17616     17610     17609     17635     17636
     17610     17609     17635     17637     17610     17609     17635     17641
     17611     17601     17599     17622     17611     17609     17635     17636
     17611     17609     17635     17637     17611     17609     17635     17641
     17611     17616     17619     17620     17611     17616     17619     17621
     17611     17616     17619     17622     17612     17611     17609     17635
     17612     17611     17616     17617     17612     17611     17616     17618
     17612     17611     17616     17619     17613     17612     17611     17616
     17614     17612     17611     17616     17615     17612     17611     17616
     17616     17611     17609     17635     17616     17619     17622     17623
     17616     17619     17622     17624     17617     17616     17619     17620
     17617     17616     17619     17621     17617     17616     17619     17622
     17618     17616     17619     17620     17618     17616     17619     17621
     17618     17616     17619     17622     17619     17622     17624     17625
     17619     17622     17624     17629     17620     17619     17622     17623
     17620     17619     17622     17624     17621     17619     17622     17623
     17621     17619     17622     17624     17622     17624     17625     17626
     17622     17624     17625     17627     17622     17624     17625     17628
     17622     17624     17629     17630     17622     17624     17629     17631
     17622     17624     17629     17632     17623     17622     17624     17625
     17623     17622     17624     17629     17624     17629     17632     17633
     17624     17629     17632     17634     17625     17624     17629     17630
     17625     17624     17629     17631     17625     17624     17629     17632
     17626     17625     17624     17629     17627     17625     17624     17629
     17628     17625     17624     17629     17630     17629     17632     17633
     17630     17629     17632     17634     17631     17629     17632     17633
     17631     17629     17632     17634     17635     17641     17644     17645
     17635     17641     17644     17646     17635     17641     17644     17647
     17636     17635     17637     17638     17636     17635     17637     17639
     17636     17635     17637     17640     17636     17635     17641     17642
     17636     17635     17641     17643     17636     17635     17641     17644
     17637     17635     17641     17642     17637     17635     17641     17643
     17637     17635     17641     17644     17638     17637     17635     17641
     17639     17637     17635     17641     17640     17637     17635     17641
     17641     17644     17647     17648     17641     17644     17647     17649
     17641     17644     17647     17650     17642     17641     17644     17645
     17642     17641     17644     17646     17642     17641     17644     17647
     17643     17641     17644     17645     17643     17641     17644     17646
     17643     17641     17644     17647     17644     17647     17650     17651
     17644     17647     17650     17652     17644     17647     17650     17656
     17645     17644     17647     17648     17645     17644     17647     17649
     17645     17644     17647     17650     17646     17644     17647     17648
     17646     17644     17647     17649     17646     17644     17647     17650
     17647     17650     17652     17653     17647     17650     17652     17654
     17647     17650     17652     17655     17647     17650     17656     17657
     17647     17650     17656     17658     17647     17650     17656     17659
     17648     17647     17650     17651     17648     17647     17650     17652
     17648     17647     17650     17656     17649     17647     17650     17651
     17649     17647     17650     17652     17649     17647     17650     17656
     17651     17650     17652     17653     17651     17650     17652     17654
     17651     17650     17652     17655     17651     17650     17656     17657
     17651     17650     17656     17658     17651     17650     17656     17659
     17652     17650     17656     17657     17652     17650     17656     17658
     17652     17650     17656     17659     17653     17652     17650     17656
     17654     17652     17650     17656     17655     17652     17650     17656
     17660     17664     17667     17668     17660     17664     17667     17698
     17660     17706     17703     17698     17660     17706     17703     17704
     17660     17706     17703     17705     17661     17660     17662     17663
     17661     17660     17664     17665     17661     17660     17664     17666
     17661     17660     17664     17667     17661     17660     17706     17703
     17661     17660     17706     17707     17661     17660     17706     17708
     17662     17660     17664     17665     17662     17660     17664     17666
     17662     17660     17664     17667     17662     17660     17706     17703
     17662     17660     17706     17707     17662     17660     17706     17708
     17663     17662     17660     17664     17663     17662     17660     17706
     17664     17660     17706     17703     17664     17660     17706     17707
     17664     17660     17706     17708     17664     17667     17668     17669
     17664     17667     17668     17670     17664     17667     17698     17696
     17664     17667     17698     17699     17664     17667     17698     17703
     17665     17664     17660     17706     17665     17664     17667     17668
     17665     17664     17667     17698     17666     17664     17660     17706
     17666     17664     17667     17668     17666     17664     17667     17698
     17667     17664     17660     17706     17667     17668     17670     17671
     17667     17668     17670     17672     17667     17668     17670     17673
     17667     17698     17696     17673     17667     17698     17696     17693
     17667     17698     17696     17697     17667     17698     17699     17700
     17667     17698     17699     17701     17667     17698     17699     17702
     17667     17698     17703     17704     17667     17698     17703     17705
     17667     17698     17703     17706     17668     17667     17698     17696
     17668     17667     17698     17699     17668     17667     17698     17703
     17668     17670     17673     17674     17668     17670     17673     17675
     17668     17670     17673     17696     17669     17668     17667     17698
     17669     17668     17670     17671     17669     17668     17670     17672
     17669     17668     17670     17673     17670     17668     17667     17698
     17670     17673     17675     17676     17670     17673     17675     17677
     17670     17673     17675     17685     17670     17673     17696     17693
     17670     17673     17696     17697     17670     17673     17696     17698
     17671     17670     17673     17674     17671     17670     17673     17675
     17671     17670     17673     17696     17672     17670     17673     17674
     17672     17670     17673     17675     17672     17670     17673     17696
     17673     17675     17677     17678     17673     17675     17677     17679
     17673     17675     17677     17680     17673     17675     17685     17683
     17673     17675     17685     17686     17673     17675     17685     17690
     17673     17696     17693     17690     17673     17696     17693     17694
     17673     17696     17693     17695     17673     17696     17698     17699
     17673     17696     17698     17703     17674     17673     17675     17676
     17674     17673     17675     17677     17674     17673     17675     17685
     17674     17673     17696     17693     17674     17673     17696     17697
     17674     17673     17696     17698     17675     17673     17696     17693
     17675     17673     17696     17697     17675     17673     17696     17698
     17675     17677     17680     17681     17675     17677     17680     17682
     17675     17677     17680     17683     17675     17685     17683     17680
     17675     17685     17683     17684     17675     17685     17683     17709
     17675     17685     17686     17687     17675     17685     17686     17688
     17675     17685     17686     17689     17675     17685     17690     17691
     17675     17685     17690     17692     17675     17685     17690     17693
     17676     17675     17673     17696     17676     17675     17677     17678
     17676     17675     17677     17679     17676     17675     17677     17680
     17676     17675     17685     17683     17676     17675     17685     17686
     17676     17675     17685     17690     17677     17675     17673     17696
     17677     17675     17685     17683     17677     17675     17685     17686
     17677     17675     17685     17690     17677     17680     17683     17684
     17677     17680     17683     17685     17677     17680     17683     17709
     17678     17677     17675     17685     17678     17677     17680     17681
     17678     17677     17680     17682     17678     17677     17680     17683
     17679     17677     17675     17685     17679     17677     17680     17681
     17679     17677     17680     17682     17679     17677     17680     17683
     17680     17677     17675     17685     17680     17683     17685     17686
     17680     17683     17685     17690     17680     17683     17709     17710
     17680     17683     17709     17711     17680     17683     17709     17715
     17681     17680     17683     17684     17681     17680     17683     17685
     17681     17680     17683     17709     17682     17680     17683     17684
     17682     17680     17683     17685     17682     17680     17683     17709
     17683     17685     17686     17687     17683     17685     17686     17688
     17683     17685     17686     17689     17683     17685     17690     17691
     17683     17685     17690     17692     17683     17685     17690     17693
     17683     17709     17711     17712     17683     17709     17711     17713
     17683     17709     17711     17714     17683     17709     17715     17716
     17683     17709     17715     17717     17683     17709     17715     17718
     17684     17683     17685     17686     17684     17683     17685     17690
     17684     17683     17709     17710     17684     17683     17709     17711
     17684     17683     17709     17715     17685     17675     17673     17696
     17685     17683     17709     17710     17685     17683     17709     17711
     17685     17683     17709     17715     17685     17690     17693     17694
     17685     17690     17693     17695     17685     17690     17693     17696
     17686     17685     17683     17709     17686     17685     17690     17691
     17686     17685     17690     17692     17686     17685     17690     17693
     17687     17686     17685     17690     17688     17686     17685     17690
     17689     17686     17685     17690     17690     17685     17683     17709
     17690     17693     17696     17697     17690     17693     17696     17698
     17691     17690     17693     17694     17691     17690     17693     17695
     17691     17690     17693     17696     17692     17690     17693     17694
     17692     17690     17693     17695     17692     17690     17693     17696
     17693     17696     17698     17699     17693     17696     17698     17703
     17694     17693     17696     17697     17694     17693     17696     17698
     17695     17693     17696     17697     17695     17693     17696     17698
     17696     17698     17699     17700     17696     17698     17699     17701
     17696     17698     17699     17702     17696     17698     17703     17704
     17696     17698     17703     17705     17696     17698     17703     17706
     17697     17696     17698     17699     17697     17696     17698     17703
     17698     17703     17706     17707     17698     17703     17706     17708
     17699     17698     17703     17704     17699     17698     17703     17705
     17699     17698     17703     17706     17700     17699     17698     17703
     17701     17699     17698     17703     17702     17699     17698     17703
     17704     17703     17706     17707     17704     17703     17706     17708
     17705     17703     17706     17707     17705     17703     17706     17708
     17709     17715     17718     17719     17709     17715     17718     17720
     17709     17715     17718     17721     17710     17709     17711     17712
     17710     17709     17711     17713     17710     17709     17711     17714
     17710     17709     17715     17716     17710     17709     17715     17717
     17710     17709     17715     17718     17711     17709     17715     17716
     17711     17709     17715     17717     17711     17709     17715     17718
     17712     17711     17709     17715     17713     17711     17709     17715
     17714     17711     17709     17715     17715     17718     17721     17722
     17715     17718     17721     17723     17715     17718     17721     17724
     17716     17715     17718     17719     17716     17715     17718     17720
     17716     17715     17718     17721     17717     17715     17718     17719
     17717     17715     17718     17720     17717     17715     17718     17721
     17718     17721     17724     17725     17718     17721     17724     17726
     17718     17721     17724     17730     17719     17718     17721     17722
     17719     17718     17721     17723     17719     17718     17721     17724
     17720     17718     17721     17722     17720     17718     17721     17723
     17720     17718     17721     17724     17721     17724     17726     17727
     17721     17724     17726     17728     17721     17724     17726     17729
     17721     17724     17730     17731     17721     17724     17730     17732
     17721     17724     17730     17733     17722     17721     17724     17725
     17722     17721     17724     17726     17722     17721     17724     17730
     17723     17721     17724     17725     17723     17721     17724     17726
     17723     17721     17724     17730     17725     17724     17726     17727
     17725     17724     17726     17728     17725     17724     17726     17729
     17725     17724     17730     17731     17725     17724     17730     17732
     17725     17724     17730     17733     17726     17724     17730     17731
     17726     17724     17730     17732     17726     17724     17730     17733
     17727     17726     17724     17730     17728     17726     17724     17730
     17729     17726     17724     17730     17734     17738     17741     17742
     17734     17738     17741     17772     17734     17780     17777     17772
     17734     17780     17777     17778     17734     17780     17777     17779
     17735     17734     17736     17737     17735     17734     17738     17739
     17735     17734     17738     17740     17735     17734     17738     17741
     17735     17734     17780     17777     17735     17734     17780     17781
     17735     17734     17780     17782     17736     17734     17738     17739
     17736     17734     17738     17740     17736     17734     17738     17741
     17736     17734     17780     17777     17736     17734     17780     17781
     17736     17734     17780     17782     17737     17736     17734     17738
     17737     17736     17734     17780     17738     17734     17780     17777
     17738     17734     17780     17781     17738     17734     17780     17782
     17738     17741     17742     17743     17738     17741     17742     17744
     17738     17741     17772     17770     17738     17741     17772     17773
     17738     17741     17772     17777     17739     17738     17734     17780
     17739     17738     17741     17742     17739     17738     17741     17772
     17740     17738     17734     17780     17740     17738     17741     17742
     17740     17738     17741     17772     17741     17738     17734     17780
     17741     17742     17744     17745     17741     17742     17744     17746
     17741     17742     17744     17747     17741     17772     17770     17747
     17741     17772     17770     17767     17741     17772     17770     17771
     17741     17772     17773     17774     17741     17772     17773     17775
     17741     17772     17773     17776     17741     17772     17777     17778
     17741     17772     17777     17779     17741     17772     17777     17780
     17742     17741     17772     17770     17742     17741     17772     17773
     17742     17741     17772     17777     17742     17744     17747     17748
     17742     17744     17747     17749     17742     17744     17747     17770
     17743     17742     17741     17772     17743     17742     17744     17745
     17743     17742     17744     17746     17743     17742     17744     17747
     17744     17742     17741     17772     17744     17747     17749     17750
     17744     17747     17749     17751     17744     17747     17749     17759
     17744     17747     17770     17767     17744     17747     17770     17771
     17744     17747     17770     17772     17745     17744     17747     17748
     17745     17744     17747     17749     17745     17744     17747     17770
     17746     17744     17747     17748     17746     17744     17747     17749
     17746     17744     17747     17770     17747     17749     17751     17752
     17747     17749     17751     17753     17747     17749     17751     17754
     17747     17749     17759     17757     17747     17749     17759     17760
     17747     17749     17759     17764     17747     17770     17767     17764
     17747     17770     17767     17768     17747     17770     17767     17769
     17747     17770     17772     17773     17747     17770     17772     17777
     17748     17747     17749     17750     17748     17747     17749     17751
     17748     17747     17749     17759     17748     17747     17770     17767
     17748     17747     17770     17771     17748     17747     17770     17772
     17749     17747     17770     17767     17749     17747     17770     17771
     17749     17747     17770     17772     17749     17751     17754     17755
     17749     17751     17754     17756     17749     17751     17754     17757
     17749     17759     17757     17754     17749     17759     17757     17758
     17749     17759     17757     17783     17749     17759     17760     17761
     17749     17759     17760     17762     17749     17759     17760     17763
     17749     17759     17764     17765     17749     17759     17764     17766
     17749     17759     17764     17767     17750     17749     17747     17770
     17750     17749     17751     17752     17750     17749     17751     17753
     17750     17749     17751     17754     17750     17749     17759     17757
     17750     17749     17759     17760     17750     17749     17759     17764
     17751     17749     17747     17770     17751     17749     17759     17757
     17751     17749     17759     17760     17751     17749     17759     17764
     17751     17754     17757     17758     17751     17754     17757     17759
     17751     17754     17757     17783     17752     17751     17749     17759
     17752     17751     17754     17755     17752     17751     17754     17756
     17752     17751     17754     17757     17753     17751     17749     17759
     17753     17751     17754     17755     17753     17751     17754     17756
     17753     17751     17754     17757     17754     17751     17749     17759
     17754     17757     17759     17760     17754     17757     17759     17764
     17754     17757     17783     17784     17754     17757     17783     17785
     17754     17757     17783     17789     17755     17754     17757     17758
     17755     17754     17757     17759     17755     17754     17757     17783
     17756     17754     17757     17758     17756     17754     17757     17759
     17756     17754     17757     17783     17757     17759     17760     17761
     17757     17759     17760     17762     17757     17759     17760     17763
     17757     17759     17764     17765     17757     17759     17764     17766
     17757     17759     17764     17767     17757     17783     17785     17786
     17757     17783     17785     17787     17757     17783     17785     17788
     17757     17783     17789     17790     17757     17783     17789     17791
     17757     17783     17789     17792     17758     17757     17759     17760
     17758     17757     17759     17764     17758     17757     17783     17784
     17758     17757     17783     17785     17758     17757     17783     17789
     17759     17749     17747     17770     17759     17757     17783     17784
     17759     17757     17783     17785     17759     17757     17783     17789
     17759     17764     17767     17768     17759     17764     17767     17769
     17759     17764     17767     17770     17760     17759     17757     17783
     17760     17759     17764     17765     17760     17759     17764     17766
     17760     17759     17764     17767     17761     17760     17759     17764
     17762     17760     17759     17764     17763     17760     17759     17764
     17764     17759     17757     17783     17764     17767     17770     17771
     17764     17767     17770     17772     17765     17764     17767     17768
     17765     17764     17767     17769     17765     17764     17767     17770
     17766     17764     17767     17768     17766     17764     17767     17769
     17766     17764     17767     17770     17767     17770     17772     17773
     17767     17770     17772     17777     17768     17767     17770     17771
     17768     17767     17770     17772     17769     17767     17770     17771
     17769     17767     17770     17772     17770     17772     17773     17774
     17770     17772     17773     17775     17770     17772     17773     17776
     17770     17772     17777     17778     17770     17772     17777     17779
     17770     17772     17777     17780     17771     17770     17772     17773
     17771     17770     17772     17777     17772     17777     17780     17781
     17772     17777     17780     17782     17773     17772     17777     17778
     17773     17772     17777     17779     17773     17772     17777     17780
     17774     17773     17772     17777     17775     17773     17772     17777
     17776     17773     17772     17777     17778     17777     17780     17781
     17778     17777     17780     17782     17779     17777     17780     17781
     17779     17777     17780     17782     17783     17789     17792     17793
     17783     17789     17792     17794     17783     17789     17792     17795
     17784     17783     17785     17786     17784     17783     17785     17787
     17784     17783     17785     17788     17784     17783     17789     17790
     17784     17783     17789     17791     17784     17783     17789     17792
     17785     17783     17789     17790     17785     17783     17789     17791
     17785     17783     17789     17792     17786     17785     17783     17789
     17787     17785     17783     17789     17788     17785     17783     17789
     17789     17792     17795     17796     17789     17792     17795     17797
     17789     17792     17795     17798     17790     17789     17792     17793
     17790     17789     17792     17794     17790     17789     17792     17795
     17791     17789     17792     17793     17791     17789     17792     17794
     17791     17789     17792     17795     17792     17795     17798     17799
     17792     17795     17798     17800     17792     17795     17798     17804
     17793     17792     17795     17796     17793     17792     17795     17797
     17793     17792     17795     17798     17794     17792     17795     17796
     17794     17792     17795     17797     17794     17792     17795     17798
     17795     17798     17800     17801     17795     17798     17800     17802
     17795     17798     17800     17803     17795     17798     17804     17805
     17795     17798     17804     17806     17795     17798     17804     17807
     17796     17795     17798     17799     17796     17795     17798     17800
     17796     17795     17798     17804     17797     17795     17798     17799
     17797     17795     17798     17800     17797     17795     17798     17804
     17799     17798     17800     17801     17799     17798     17800     17802
     17799     17798     17800     17803     17799     17798     17804     17805
     17799     17798     17804     17806     17799     17798     17804     17807
     17800     17798     17804     17805     17800     17798     17804     17806
     17800     17798     17804     17807     17801     17800     17798     17804
     17802     17800     17798     17804     17803     17800     17798     17804
     17808     17812     17815     17816     17808     17812     17815     17846
     17808     17854     17851     17846     17808     17854     17851     17852
     17808     17854     17851     17853     17809     17808     17810     17811
     17809     17808     17812     17813     17809     17808     17812     17814
     17809     17808     17812     17815     17809     17808     17854     17851
     17809     17808     17854     17855     17809     17808     17854     17856
     17810     17808     17812     17813     17810     17808     17812     17814
     17810     17808     17812     17815     17810     17808     17854     17851
     17810     17808     17854     17855     17810     17808     17854     17856
     17811     17810     17808     17812     17811     17810     17808     17854
     17812     17808     17854     17851     17812     17808     17854     17855
     17812     17808     17854     17856     17812     17815     17816     17817
     17812     17815     17816     17818     17812     17815     17846     17844
     17812     17815     17846     17847     17812     17815     17846     17851
     17813     17812     17808     17854     17813     17812     17815     17816
     17813     17812     17815     17846     17814     17812     17808     17854
     17814     17812     17815     17816     17814     17812     17815     17846
     17815     17812     17808     17854     17815     17816     17818     17819
     17815     17816     17818     17820     17815     17816     17818     17821
     17815     17846     17844     17821     17815     17846     17844     17841
     17815     17846     17844     17845     17815     17846     17847     17848
     17815     17846     17847     17849     17815     17846     17847     17850
     17815     17846     17851     17852     17815     17846     17851     17853
     17815     17846     17851     17854     17816     17815     17846     17844
     17816     17815     17846     17847     17816     17815     17846     17851
     17816     17818     17821     17822     17816     17818     17821     17823
     17816     17818     17821     17844     17817     17816     17815     17846
     17817     17816     17818     17819     17817     17816     17818     17820
     17817     17816     17818     17821     17818     17816     17815     17846
     17818     17821     17823     17824     17818     17821     17823     17825
     17818     17821     17823     17833     17818     17821     17844     17841
     17818     17821     17844     17845     17818     17821     17844     17846
     17819     17818     17821     17822     17819     17818     17821     17823
     17819     17818     17821     17844     17820     17818     17821     17822
     17820     17818     17821     17823     17820     17818     17821     17844
     17821     17823     17825     17826     17821     17823     17825     17827
     17821     17823     17825     17828     17821     17823     17833     17831
     17821     17823     17833     17834     17821     17823     17833     17838
     17821     17844     17841     17838     17821     17844     17841     17842
     17821     17844     17841     17843     17821     17844     17846     17847
     17821     17844     17846     17851     17822     17821     17823     17824
     17822     17821     17823     17825     17822     17821     17823     17833
     17822     17821     17844     17841     17822     17821     17844     17845
     17822     17821     17844     17846     17823     17821     17844     17841
     17823     17821     17844     17845     17823     17821     17844     17846
     17823     17825     17828     17829     17823     17825     17828     17830
     17823     17825     17828     17831     17823     17833     17831     17828
     17823     17833     17831     17832     17823     17833     17831     17857
     17823     17833     17834     17835     17823     17833     17834     17836
     17823     17833     17834     17837     17823     17833     17838     17839
     17823     17833     17838     17840     17823     17833     17838     17841
     17824     17823     17821     17844     17824     17823     17825     17826
     17824     17823     17825     17827     17824     17823     17825     17828
     17824     17823     17833     17831     17824     17823     17833     17834
     17824     17823     17833     17838     17825     17823     17821     17844
     17825     17823     17833     17831     17825     17823     17833     17834
     17825     17823     17833     17838     17825     17828     17831     17832
     17825     17828     17831     17833     17825     17828     17831     17857
     17826     17825     17823     17833     17826     17825     17828     17829
     17826     17825     17828     17830     17826     17825     17828     17831
     17827     17825     17823     17833     17827     17825     17828     17829
     17827     17825     17828     17830     17827     17825     17828     17831
     17828     17825     17823     17833     17828     17831     17833     17834
     17828     17831     17833     17838     17828     17831     17857     17858
     17828     17831     17857     17859     17828     17831     17857     17863
     17829     17828     17831     17832     17829     17828     17831     17833
     17829     17828     17831     17857     17830     17828     17831     17832
     17830     17828     17831     17833     17830     17828     17831     17857
     17831     17833     17834     17835     17831     17833     17834     17836
     17831     17833     17834     17837     17831     17833     17838     17839
     17831     17833     17838     17840     17831     17833     17838     17841
     17831     17857     17859     17860     17831     17857     17859     17861
     17831     17857     17859     17862     17831     17857     17863     17864
     17831     17857     17863     17865     17831     17857     17863     17866
     17832     17831     17833     17834     17832     17831     17833     17838
     17832     17831     17857     17858     17832     17831     17857     17859
     17832     17831     17857     17863     17833     17823     17821     17844
     17833     17831     17857     17858     17833     17831     17857     17859
     17833     17831     17857     17863     17833     17838     17841     17842
     17833     17838     17841     17843     17833     17838     17841     17844
     17834     17833     17831     17857     17834     17833     17838     17839
     17834     17833     17838     17840     17834     17833     17838     17841
     17835     17834     17833     17838     17836     17834     17833     17838
     17837     17834     17833     17838     17838     17833     17831     17857
     17838     17841     17844     17845     17838     17841     17844     17846
     17839     17838     17841     17842     17839     17838     17841     17843
     17839     17838     17841     17844     17840     17838     17841     17842
     17840     17838     17841     17843     17840     17838     17841     17844
     17841     17844     17846     17847     17841     17844     17846     17851
     17842     17841     17844     17845     17842     17841     17844     17846
     17843     17841     17844     17845     17843     17841     17844     17846
     17844     17846     17847     17848     17844     17846     17847     17849
     17844     17846     17847     17850     17844     17846     17851     17852
     17844     17846     17851     17853     17844     17846     17851     17854
     17845     17844     17846     17847     17845     17844     17846     17851
     17846     17851     17854     17855     17846     17851     17854     17856
     17847     17846     17851     17852     17847     17846     17851     17853
     17847     17846     17851     17854     17848     17847     17846     17851
     17849     17847     17846     17851     17850     17847     17846     17851
     17852     17851     17854     17855     17852     17851     17854     17856
     17853     17851     17854     17855     17853     17851     17854     17856
     17857     17863     17866     17867     17857     17863     17866     17868
     17857     17863     17866     17869     17858     17857     17859     17860
     17858     17857     17859     17861     17858     17857     17859     17862
     17858     17857     17863     17864     17858     17857     17863     17865
     17858     17857     17863     17866     17859     17857     17863     17864
     17859     17857     17863     17865     17859     17857     17863     17866
     17860     17859     17857     17863     17861     17859     17857     17863
     17862     17859     17857     17863     17863     17866     17869     17870
     17863     17866     17869     17871     17863     17866     17869     17872
     17864     17863     17866     17867     17864     17863     17866     17868
     17864     17863     17866     17869     17865     17863     17866     17867
     17865     17863     17866     17868     17865     17863     17866     17869
     17866     17869     17872     17873     17866     17869     17872     17874
     17866     17869     17872     17878     17867     17866     17869     17870
     17867     17866     17869     17871     17867     17866     17869     17872
     17868     17866     17869     17870     17868     17866     17869     17871
     17868     17866     17869     17872     17869     17872     17874     17875
     17869     17872     17874     17876     17869     17872     17874     17877
     17869     17872     17878     17879     17869     17872     17878     17880
     17869     17872     17878     17881     17870     17869     17872     17873
     17870     17869     17872     17874     17870     17869     17872     17878
     17871     17869     17872     17873     17871     17869     17872     17874
     17871     17869     17872     17878     17873     17872     17874     17875
     17873     17872     17874     17876     17873     17872     17874     17877
     17873     17872     17878     17879     17873     17872     17878     17880
     17873     17872     17878     17881     17874     17872     17878     17879
     17874     17872     17878     17880     17874     17872     17878     17881
     17875     17874     17872     17878     17876     17874     17872     17878
     17877     17874     17872     17878     17882     17886     17889     17890
     17882     17886     17889     17920     17882     17928     17925     17920
     17882     17928     17925     17926     17882     17928     17925     17927
     17883     17882     17884     17885     17883     17882     17886     17887
     17883     17882     17886     17888     17883     17882     17886     17889
     17883     17882     17928     17925     17883     17882     17928     17929
     17883     17882     17928     17930     17884     17882     17886     17887
     17884     17882     17886     17888     17884     17882     17886     17889
     17884     17882     17928     17925     17884     17882     17928     17929
     17884     17882     17928     17930     17885     17884     17882     17886
     17885     17884     17882     17928     17886     17882     17928     17925
     17886     17882     17928     17929     17886     17882     17928     17930
     17886     17889     17890     17891     17886     17889     17890     17892
     17886     17889     17920     17918     17886     17889     17920     17921
     17886     17889     17920     17925     17887     17886     17882     17928
     17887     17886     17889     17890     17887     17886     17889     17920
     17888     17886     17882     17928     17888     17886     17889     17890
     17888     17886     17889     17920     17889     17886     17882     17928
     17889     17890     17892     17893     17889     17890     17892     17894
     17889     17890     17892     17895     17889     17920     17918     17895
     17889     17920     17918     17915     17889     17920     17918     17919
     17889     17920     17921     17922     17889     17920     17921     17923
     17889     17920     17921     17924     17889     17920     17925     17926
     17889     17920     17925     17927     17889     17920     17925     17928
     17890     17889     17920     17918     17890     17889     17920     17921
     17890     17889     17920     17925     17890     17892     17895     17896
     17890     17892     17895     17897     17890     17892     17895     17918
     17891     17890     17889     17920     17891     17890     17892     17893
     17891     17890     17892     17894     17891     17890     17892     17895
     17892     17890     17889     17920     17892     17895     17897     17898
     17892     17895     17897     17899     17892     17895     17897     17907
     17892     17895     17918     17915     17892     17895     17918     17919
     17892     17895     17918     17920     17893     17892     17895     17896
     17893     17892     17895     17897     17893     17892     17895     17918
     17894     17892     17895     17896     17894     17892     17895     17897
     17894     17892     17895     17918     17895     17897     17899     17900
     17895     17897     17899     17901     17895     17897     17899     17902
     17895     17897     17907     17905     17895     17897     17907     17908
     17895     17897     17907     17912     17895     17918     17915     17912
     17895     17918     17915     17916     17895     17918     17915     17917
     17895     17918     17920     17921     17895     17918     17920     17925
     17896     17895     17897     17898     17896     17895     17897     17899
     17896     17895     17897     17907     17896     17895     17918     17915
     17896     17895     17918     17919     17896     17895     17918     17920
     17897     17895     17918     17915     17897     17895     17918     17919
     17897     17895     17918     17920     17897     17899     17902     17903
     17897     17899     17902     17904     17897     17899     17902     17905
     17897     17907     17905     17902     17897     17907     17905     17906
     17897     17907     17905     17931     17897     17907     17908     17909
     17897     17907     17908     17910     17897     17907     17908     17911
     17897     17907     17912     17913     17897     17907     17912     17914
     17897     17907     17912     17915     17898     17897     17895     17918
     17898     17897     17899     17900     17898     17897     17899     17901
     17898     17897     17899     17902     17898     17897     17907     17905
     17898     17897     17907     17908     17898     17897     17907     17912
     17899     17897     17895     17918     17899     17897     17907     17905
     17899     17897     17907     17908     17899     17897     17907     17912
     17899     17902     17905     17906     17899     17902     17905     17907
     17899     17902     17905     17931     17900     17899     17897     17907
     17900     17899     17902     17903     17900     17899     17902     17904
     17900     17899     17902     17905     17901     17899     17897     17907
     17901     17899     17902     17903     17901     17899     17902     17904
     17901     17899     17902     17905     17902     17899     17897     17907
     17902     17905     17907     17908     17902     17905     17907     17912
     17902     17905     17931     17932     17902     17905     17931     17933
     17902     17905     17931     17937     17903     17902     17905     17906
     17903     17902     17905     17907     17903     17902     17905     17931
     17904     17902     17905     17906     17904     17902     17905     17907
     17904     17902     17905     17931     17905     17907     17908     17909
     17905     17907     17908     17910     17905     17907     17908     17911
     17905     17907     17912     17913     17905     17907     17912     17914
     17905     17907     17912     17915     17905     17931     17933     17934
     17905     17931     17933     17935     17905     17931     17933     17936
     17905     17931     17937     17938     17905     17931     17937     17939
     17905     17931     17937     17940     17906     17905     17907     17908
     17906     17905     17907     17912     17906     17905     17931     17932
     17906     17905     17931     17933     17906     17905     17931     17937
     17907     17897     17895     17918     17907     17905     17931     17932
     17907     17905     17931     17933     17907     17905     17931     17937
     17907     17912     17915     17916     17907     17912     17915     17917
     17907     17912     17915     17918     17908     17907     17905     17931
     17908     17907     17912     17913     17908     17907     17912     17914
     17908     17907     17912     17915     17909     17908     17907     17912
     17910     17908     17907     17912     17911     17908     17907     17912
     17912     17907     17905     17931     17912     17915     17918     17919
     17912     17915     17918     17920     17913     17912     17915     17916
     17913     17912     17915     17917     17913     17912     17915     17918
     17914     17912     17915     17916     17914     17912     17915     17917
     17914     17912     17915     17918     17915     17918     17920     17921
     17915     17918     17920     17925     17916     17915     17918     17919
     17916     17915     17918     17920     17917     17915     17918     17919
     17917     17915     17918     17920     17918     17920     17921     17922
     17918     17920     17921     17923     17918     17920     17921     17924
     17918     17920     17925     17926     17918     17920     17925     17927
     17918     17920     17925     17928     17919     17918     17920     17921
     17919     17918     17920     17925     17920     17925     17928     17929
     17920     17925     17928     17930     17921     17920     17925     17926
     17921     17920     17925     17927     17921     17920     17925     17928
     17922     17921     17920     17925     17923     17921     17920     17925
     17924     17921     17920     17925     17926     17925     17928     17929
     17926     17925     17928     17930     17927     17925     17928     17929
     17927     17925     17928     17930     17931     17937     17940     17941
     17931     17937     17940     17942     17931     17937     17940     17943
     17932     17931     17933     17934     17932     17931     17933     17935
     17932     17931     17933     17936     17932     17931     17937     17938
     17932     17931     17937     17939     17932     17931     17937     17940
     17933     17931     17937     17938     17933     17931     17937     17939
     17933     17931     17937     17940     17934     17933     17931     17937
     17935     17933     17931     17937     17936     17933     17931     17937
     17937     17940     17943     17944     17937     17940     17943     17945
     17937     17940     17943     17946     17938     17937     17940     17941
     17938     17937     17940     17942     17938     17937     17940     17943
     17939     17937     17940     17941     17939     17937     17940     17942
     17939     17937     17940     17943     17940     17943     17946     17947
     17940     17943     17946     17948     17940     17943     17946     17952
     17941     17940     17943     17944     17941     17940     17943     17945
     17941     17940     17943     17946     17942     17940     17943     17944
     17942     17940     17943     17945     17942     17940     17943     17946
     17943     17946     17948     17949     17943     17946     17948     17950
     17943     17946     17948     17951     17943     17946     17952     17953
     17943     17946     17952     17954     17943     17946     17952     17955
     17944     17943     17946     17947     17944     17943     17946     17948
     17944     17943     17946     17952     17945     17943     17946     17947
     17945     17943     17946     17948     17945     17943     17946     17952
     17947     17946     17948     17949     17947     17946     17948     17950
     17947     17946     17948     17951     17947     17946     17952     17953
     17947     17946     17952     17954     17947     17946     17952     17955
     17948     17946     17952     17953     17948     17946     17952     17954
     17948     17946     17952     17955     17949     17948     17946     17952
     17950     17948     17946     17952     17951     17948     17946     17952
     17956     17960     17963     17964     17956     17960     17963     17994
     17956     18002     17999     17994     17956     18002     17999     18000
     17956     18002     17999     18001     17957     17956     17958     17959
     17957     17956     17960     17961     17957     17956     17960     17962
     17957     17956     17960     17963     17957     17956     18002     17999
     17957     17956     18002     18003     17957     17956     18002     18004
     17958     17956     17960     17961     17958     17956     17960     17962
     17958     17956     17960     17963     17958     17956     18002     17999
     17958     17956     18002     18003     17958     17956     18002     18004
     17959     17958     17956     17960     17959     17958     17956     18002
     17960     17956     18002     17999     17960     17956     18002     18003
     17960     17956     18002     18004     17960     17963     17964     17965
     17960     17963     17964     17966     17960     17963     17994     17992
     17960     17963     17994     17995     17960     17963     17994     17999
     17961     17960     17956     18002     17961     17960     17963     17964
     17961     17960     17963     17994     17962     17960     17956     18002
     17962     17960     17963     17964     17962     17960     17963     17994
     17963     17960     17956     18002     17963     17964     17966     17967
     17963     17964     17966     17968     17963     17964     17966     17969
     17963     17994     17992     17969     17963     17994     17992     17989
     17963     17994     17992     17993     17963     17994     17995     17996
     17963     17994     17995     17997     17963     17994     17995     17998
     17963     17994     17999     18000     17963     17994     17999     18001
     17963     17994     17999     18002     17964     17963     17994     17992
     17964     17963     17994     17995     17964     17963     17994     17999
     17964     17966     17969     17970     17964     17966     17969     17971
     17964     17966     17969     17992     17965     17964     17963     17994
     17965     17964     17966     17967     17965     17964     17966     17968
     17965     17964     17966     17969     17966     17964     17963     17994
     17966     17969     17971     17972     17966     17969     17971     17973
     17966     17969     17971     17981     17966     17969     17992     17989
     17966     17969     17992     17993     17966     17969     17992     17994
     17967     17966     17969     17970     17967     17966     17969     17971
     17967     17966     17969     17992     17968     17966     17969     17970
     17968     17966     17969     17971     17968     17966     17969     17992
     17969     17971     17973     17974     17969     17971     17973     17975
     17969     17971     17973     17976     17969     17971     17981     17979
     17969     17971     17981     17982     17969     17971     17981     17986
     17969     17992     17989     17986     17969     17992     17989     17990
     17969     17992     17989     17991     17969     17992     17994     17995
     17969     17992     17994     17999     17970     17969     17971     17972
     17970     17969     17971     17973     17970     17969     17971     17981
     17970     17969     17992     17989     17970     17969     17992     17993
     17970     17969     17992     17994     17971     17969     17992     17989
     17971     17969     17992     17993     17971     17969     17992     17994
     17971     17973     17976     17977     17971     17973     17976     17978
     17971     17973     17976     17979     17971     17981     17979     17976
     17971     17981     17979     17980     17971     17981     17979     18005
     17971     17981     17982     17983     17971     17981     17982     17984
     17971     17981     17982     17985     17971     17981     17986     17987
     17971     17981     17986     17988     17971     17981     17986     17989
     17972     17971     17969     17992     17972     17971     17973     17974
     17972     17971     17973     17975     17972     17971     17973     17976
     17972     17971     17981     17979     17972     17971     17981     17982
     17972     17971     17981     17986     17973     17971     17969     17992
     17973     17971     17981     17979     17973     17971     17981     17982
     17973     17971     17981     17986     17973     17976     17979     17980
     17973     17976     17979     17981     17973     17976     17979     18005
     17974     17973     17971     17981     17974     17973     17976     17977
     17974     17973     17976     17978     17974     17973     17976     17979
     17975     17973     17971     17981     17975     17973     17976     17977
     17975     17973     17976     17978     17975     17973     17976     17979
     17976     17973     17971     17981     17976     17979     17981     17982
     17976     17979     17981     17986     17976     17979     18005     18006
     17976     17979     18005     18007     17976     17979     18005     18011
     17977     17976     17979     17980     17977     17976     17979     17981
     17977     17976     17979     18005     17978     17976     17979     17980
     17978     17976     17979     17981     17978     17976     17979     18005
     17979     17981     17982     17983     17979     17981     17982     17984
     17979     17981     17982     17985     17979     17981     17986     17987
     17979     17981     17986     17988     17979     17981     17986     17989
     17979     18005     18007     18008     17979     18005     18007     18009
     17979     18005     18007     18010     17979     18005     18011     18012
     17979     18005     18011     18013     17979     18005     18011     18014
     17980     17979     17981     17982     17980     17979     17981     17986
     17980     17979     18005     18006     17980     17979     18005     18007
     17980     17979     18005     18011     17981     17971     17969     17992
     17981     17979     18005     18006     17981     17979     18005     18007
     17981     17979     18005     18011     17981     17986     17989     17990
     17981     17986     17989     17991     17981     17986     17989     17992
     17982     17981     17979     18005     17982     17981     17986     17987
     17982     17981     17986     17988     17982     17981     17986     17989
     17983     17982     17981     17986     17984     17982     17981     17986
     17985     17982     17981     17986     17986     17981     17979     18005
     17986     17989     17992     17993     17986     17989     17992     17994
     17987     17986     17989     17990     17987     17986     17989     17991
     17987     17986     17989     17992     17988     17986     17989     17990
     17988     17986     17989     17991     17988     17986     17989     17992
     17989     17992     17994     17995     17989     17992     17994     17999
     17990     17989     17992     17993     17990     17989     17992     17994
     17991     17989     17992     17993     17991     17989     17992     17994
     17992     17994     17995     17996     17992     17994     17995     17997
     17992     17994     17995     17998     17992     17994     17999     18000
     17992     17994     17999     18001     17992     17994     17999     18002
     17993     17992     17994     17995     17993     17992     17994     17999
     17994     17999     18002     18003     17994     17999     18002     18004
     17995     17994     17999     18000     17995     17994     17999     18001
     17995     17994     17999     18002     17996     17995     17994     17999
     17997     17995     17994     17999     17998     17995     17994     17999
     18000     17999     18002     18003     18000     17999     18002     18004
     18001     17999     18002     18003     18001     17999     18002     18004
     18005     18011     18014     18015     18005     18011     18014     18016
     18005     18011     18014     18017     18006     18005     18007     18008
     18006     18005     18007     18009     18006     18005     18007     18010
     18006     18005     18011     18012     18006     18005     18011     18013
     18006     18005     18011     18014     18007     18005     18011     18012
     18007     18005     18011     18013     18007     18005     18011     18014
     18008     18007     18005     18011     18009     18007     18005     18011
     18010     18007     18005     18011     18011     18014     18017     18018
     18011     18014     18017     18019     18011     18014     18017     18020
     18012     18011     18014     18015     18012     18011     18014     18016
     18012     18011     18014     18017     18013     18011     18014     18015
     18013     18011     18014     18016     18013     18011     18014     18017
     18014     18017     18020     18021     18014     18017     18020     18022
     18014     18017     18020     18026     18015     18014     18017     18018
     18015     18014     18017     18019     18015     18014     18017     18020
     18016     18014     18017     18018     18016     18014     18017     18019
     18016     18014     18017     18020     18017     18020     18022     18023
     18017     18020     18022     18024     18017     18020     18022     18025
     18017     18020     18026     18027     18017     18020     18026     18028
     18017     18020     18026     18029     18018     18017     18020     18021
     18018     18017     18020     18022     18018     18017     18020     18026
     18019     18017     18020     18021     18019     18017     18020     18022
     18019     18017     18020     18026     18021     18020     18022     18023
     18021     18020     18022     18024     18021     18020     18022     18025
     18021     18020     18026     18027     18021     18020     18026     18028
     18021     18020     18026     18029     18022     18020     18026     18027
     18022     18020     18026     18028     18022     18020     18026     18029
     18023     18022     18020     18026     18024     18022     18020     18026
     18025     18022     18020     18026     18030     18043     18046     18047
     18030     18043     18046     18048     18030     18043     18046     18053
     18031     18030     18035     18036     18031     18030     18035     18037
     18031     18030     18035     18038     18031     18030     18039     18040
     18031     18030     18039     18041     18031     18030     18039     18042
     18031     18030     18043     18044     18031     18030     18043     18045
     18031     18030     18043     18046     18032     18031     18030     18035
     18032     18031     18030     18039     18032     18031     18030     18043
     18033     18031     18030     18035     18033     18031     18030     18039
     18033     18031     18030     18043     18034     18031     18030     18035
     18034     18031     18030     18039     18034     18031     18030     18043
     18035     18030     18039     18040     18035     18030     18039     18041
     18035     18030     18039     18042     18035     18030     18043     18044
     18035     18030     18043     18045     18035     18030     18043     18046
     18036     18035     18030     18039     18036     18035     18030     18043
     18037     18035     18030     18039     18037     18035     18030     18043
     18038     18035     18030     18039     18038     18035     18030     18043
     18039     18030     18043     18044     18039     18030     18043     18045
     18039     18030     18043     18046     18040     18039     18030     18043
     18041     18039     18030     18043     18042     18039     18030     18043
     18043     18046     18053     18049     18044     18043     18046     18047
     18044     18043     18046     18048     18044     18043     18046     18053
     18045     18043     18046     18047     18045     18043     18046     18048
     18045     18043     18046     18053     18046     18053     18049     18050
     18046     18053     18049     18051     18046     18053     18049     18052
     18047     18046     18053     18049     18048     18046     18053     18049
     18049     18052     18054     18055     18049     18052     18054     18056
     18049     18052     18054     18059     18050     18049     18052     18054
     18051     18049     18052     18054     18052     18054     18059     18057
     18052     18054     18059     18060     18052     18054     18059     18061
     18053     18049     18052     18054     18054     18059     18057     18058
     18054     18059     18057     18109     18054     18059     18061     18062
     18054     18059     18061     18063     18054     18059     18061     18065
     18055     18054     18059     18057     18055     18054     18059     18060
     18055     18054     18059     18061     18056     18054     18059     18057
     18056     18054     18059     18060     18056     18054     18059     18061
     18057     18059     18061     18062     18057     18059     18061     18063
     18057     18059     18061     18065     18057     18109     18111     18112
     18057     18109     18111     18113     18057     18109     18111     18114
     18058     18057     18059     18060     18058     18057     18059     18061
     18058     18057     18109     18110     18058     18057     18109     18111
     18059     18057     18109     18110     18059     18057     18109     18111
     18059     18061     18063     18064     18059     18061     18065     18066
     18059     18061     18065     18067     18060     18059     18057     18109
     18060     18059     18061     18062     18060     18059     18061     18063
     18060     18059     18061     18065     18061     18059     18057     18109
     18061     18065     18067     18068     18061     18065     18067     18069
     18062     18061     18063     18064     18062     18061     18065     18066
     18062     18061     18065     18067     18063     18061     18065     18066
     18063     18061     18065     18067     18064     18063     18061     18065
     18065     18067     18069     18070     18065     18067     18069     18071
     18065     18067     18069     18072     18066     18065     18067     18068
     18066     18065     18067     18069     18067     18069     18072     18073
     18067     18069     18072     18074     18067     18069     18072     18075
     18068     18067     18069     18070     18068     18067     18069     18071
     18068     18067     18069     18072     18069     18072     18075     18076
     18069     18072     18075     18077     18069     18072     18075     18078
     18070     18069     18072     18073     18070     18069     18072     18074
     18070     18069     18072     18075     18071     18069     18072     18073
     18071     18069     18072     18074     18071     18069     18072     18075
     18072     18075     18078     18079     18072     18075     18078     18080
     18072     18075     18078     18081     18073     18072     18075     18076
     18073     18072     18075     18077     18073     18072     18075     18078
     18074     18072     18075     18076     18074     18072     18075     18077
     18074     18072     18075     18078     18075     18078     18081     18082
     18075     18078     18081     18083     18075     18078     18081     18084
     18076     18075     18078     18079     18076     18075     18078     18080
     18076     18075     18078     18081     18077     18075     18078     18079
     18077     18075     18078     18080     18077     18075     18078     18081
     18078     18081     18084     18085     18078     18081     18084     18086
     18078     18081     18084     18087     18079     18078     18081     18082
     18079     18078     18081     18083     18079     18078     18081     18084
     18080     18078     18081     18082     18080     18078     18081     18083
     18080     18078     18081     18084     18081     18084     18087     18088
     18081     18084     18087     18089     18081     18084     18087     18090
     18082     18081     18084     18085     18082     18081     18084     18086
     18082     18081     18084     18087     18083     18081     18084     18085
     18083     18081     18084     18086     18083     18081     18084     18087
     18084     18087     18090     18091     18084     18087     18090     18092
     18084     18087     18090     18093     18085     18084     18087     18088
     18085     18084     18087     18089     18085     18084     18087     18090
     18086     18084     18087     18088     18086     18084     18087     18089
     18086     18084     18087     18090     18087     18090     18093     18094
     18087     18090     18093     18095     18087     18090     18093     18096
     18088     18087     18090     18091     18088     18087     18090     18092
     18088     18087     18090     18093     18089     18087     18090     18091
     18089     18087     18090     18092     18089     18087     18090     18093
     18090     18093     18096     18097     18090     18093     18096     18098
     18090     18093     18096     18099     18091     18090     18093     18094
     18091     18090     18093     18095     18091     18090     18093     18096
     18092     18090     18093     18094     18092     18090     18093     18095
     18092     18090     18093     18096     18093     18096     18099     18100
     18093     18096     18099     18101     18093     18096     18099     18102
     18094     18093     18096     18097     18094     18093     18096     18098
     18094     18093     18096     18099     18095     18093     18096     18097
     18095     18093     18096     18098     18095     18093     18096     18099
     18096     18099     18102     18103     18096     18099     18102     18104
     18096     18099     18102     18105     18097     18096     18099     18100
     18097     18096     18099     18101     18097     18096     18099     18102
     18098     18096     18099     18100     18098     18096     18099     18101
     18098     18096     18099     18102     18099     18102     18105     18106
     18099     18102     18105     18107     18099     18102     18105     18108
     18100     18099     18102     18103     18100     18099     18102     18104
     18100     18099     18102     18105     18101     18099     18102     18103
     18101     18099     18102     18104     18101     18099     18102     18105
     18103     18102     18105     18106     18103     18102     18105     18107
     18103     18102     18105     18108     18104     18102     18105     18106
     18104     18102     18105     18107     18104     18102     18105     18108
     18109     18111     18114     18115     18109     18111     18114     18116
     18109     18111     18114     18117     18110     18109     18111     18112
     18110     18109     18111     18113     18110     18109     18111     18114
     18111     18114     18117     18118     18111     18114     18117     18119
     18111     18114     18117     18120     18112     18111     18114     18115
     18112     18111     18114     18116     18112     18111     18114     18117
     18113     18111     18114     18115     18113     18111     18114     18116
     18113     18111     18114     18117     18114     18117     18120     18121
     18114     18117     18120     18122     18114     18117     18120     18123
     18115     18114     18117     18118     18115     18114     18117     18119
     18115     18114     18117     18120     18116     18114     18117     18118
     18116     18114     18117     18119     18116     18114     18117     18120
     18117     18120     18123     18124     18117     18120     18123     18125
     18117     18120     18123     18126     18118     18117     18120     18121
     18118     18117     18120     18122     18118     18117     18120     18123
     18119     18117     18120     18121     18119     18117     18120     18122
     18119     18117     18120     18123     18120     18123     18126     18127
     18120     18123     18126     18128     18120     18123     18126     18129
     18121     18120     18123     18124     18121     18120     18123     18125
     18121     18120     18123     18126     18122     18120     18123     18124
     18122     18120     18123     18125     18122     18120     18123     18126
     18123     18126     18129     18130     18123     18126     18129     18131
     18123     18126     18129     18132     18124     18123     18126     18127
     18124     18123     18126     18128     18124     18123     18126     18129
     18125     18123     18126     18127     18125     18123     18126     18128
     18125     18123     18126     18129     18126     18129     18132     18133
     18126     18129     18132     18134     18127     18126     18129     18130
     18127     18126     18129     18131     18127     18126     18129     18132
     18128     18126     18129     18130     18128     18126     18129     18131
     18128     18126     18129     18132     18129     18132     18134     18135
     18129     18132     18134     18136     18130     18129     18132     18133
     18130     18129     18132     18134     18131     18129     18132     18133
     18131     18129     18132     18134     18132     18134     18136     18137
     18132     18134     18136     18138     18132     18134     18136     18139
     18133     18132     18134     18135     18133     18132     18134     18136
     18134     18136     18139     18140     18134     18136     18139     18141
     18134     18136     18139     18142     18135     18134     18136     18137
     18135     18134     18136     18138     18135     18134     18136     18139
     18136     18139     18142     18143     18136     18139     18142     18144
     18136     18139     18142     18145     18137     18136     18139     18140
     18137     18136     18139     18141     18137     18136     18139     18142
     18138     18136     18139     18140     18138     18136     18139     18141
     18138     18136     18139     18142     18139     18142     18145     18146
     18139     18142     18145     18147     18139     18142     18145     18148
     18140     18139     18142     18143     18140     18139     18142     18144
     18140     18139     18142     18145     18141     18139     18142     18143
     18141     18139     18142     18144     18141     18139     18142     18145
     18142     18145     18148     18149     18142     18145     18148     18150
     18142     18145     18148     18151     18143     18142     18145     18146
     18143     18142     18145     18147     18143     18142     18145     18148
     18144     18142     18145     18146     18144     18142     18145     18147
     18144     18142     18145     18148     18145     18148     18151     18152
     18145     18148     18151     18153     18145     18148     18151     18154
     18146     18145     18148     18149     18146     18145     18148     18150
     18146     18145     18148     18151     18147     18145     18148     18149
     18147     18145     18148     18150     18147     18145     18148     18151
     18148     18151     18154     18155     18148     18151     18154     18156
     18148     18151     18154     18157     18149     18148     18151     18152
     18149     18148     18151     18153     18149     18148     18151     18154
     18150     18148     18151     18152     18150     18148     18151     18153
     18150     18148     18151     18154     18151     18154     18157     18158
     18151     18154     18157     18159     18151     18154     18157     18160
     18152     18151     18154     18155     18152     18151     18154     18156
     18152     18151     18154     18157     18153     18151     18154     18155
     18153     18151     18154     18156     18153     18151     18154     18157
     18155     18154     18157     18158     18155     18154     18157     18159
     18155     18154     18157     18160     18156     18154     18157     18158
     18156     18154     18157     18159     18156     18154     18157     18160
     18161     18162     18177     18178     18161     18162     18177     18179
     18161     18162     18177     18183     18162     18161     18165     18166
     18162     18161     18165     18167     18162     18161     18165     18168
     18162     18161     18169     18170     18162     18161     18169     18171
     18162     18161     18169     18172     18162     18161     18173     18174
     18162     18161     18173     18175     18162     18161     18173     18176
     18162     18177     18183     18180     18163     18162     18161     18165
     18163     18162     18161     18169     18163     18162     18161     18173
     18163     18162     18177     18178     18163     18162     18177     18179
     18163     18162     18177     18183     18164     18162     18161     18165
     18164     18162     18161     18169     18164     18162     18161     18173
     18164     18162     18177     18178     18164     18162     18177     18179
     18164     18162     18177     18183     18165     18161     18162     18177
     18165     18161     18169     18170     18165     18161     18169     18171
     18165     18161     18169     18172     18165     18161     18173     18174
     18165     18161     18173     18175     18165     18161     18173     18176
     18166     18165     18161     18169     18166     18165     18161     18173
     18167     18165     18161     18169     18167     18165     18161     18173
     18168     18165     18161     18169     18168     18165     18161     18173
     18169     18161     18162     18177     18169     18161     18173     18174
     18169     18161     18173     18175     18169     18161     18173     18176
     18170     18169     18161     18173     18171     18169     18161     18173
     18172     18169     18161     18173     18173     18161     18162     18177
     18177     18183     18180     18181     18177     18183     18180     18182
     18177     18183     18180     18184     18178     18177     18183     18180
     18179     18177     18183     18180     18180     18184     18185     18186
     18180     18184     18185     18187     18180     18184     18185     18188
     18181     18180     18184     18185     18182     18180     18184     18185
     18183     18180     18184     18185     18184     18185     18188     18189
     18184     18185     18188     18190     18184     18185     18188     18196
     18185     18188     18190     18191     18185     18188     18196     18197
     18185     18188     18196     18198     18185     18188     18196     18199
     18186     18185     18188     18189     18186     18185     18188     18190
     18186     18185     18188     18196     18187     18185     18188     18189
     18187     18185     18188     18190     18187     18185     18188     18196
     18188     18190     18191     18192     18188     18190     18191     18193
     18188     18196     18199     18200     18189     18188     18190     18191
     18189     18188     18196     18197     18189     18188     18196     18198
     18189     18188     18196     18199     18190     18188     18196     18197
     18190     18188     18196     18198     18190     18188     18196     18199
     18190     18191     18193     18194     18190     18191     18193     18195
     18190     18191     18193     18205     18191     18190     18188     18196
     18191     18193     18205     18206     18191     18193     18205     18207
     18191     18193     18205     18208     18192     18191     18193     18194
     18192     18191     18193     18195     18192     18191     18193     18205
     18193     18205     18208     18209     18193     18205     18208     18210
     18193     18205     18208     18211     18194     18193     18205     18206
     18194     18193     18205     18207     18194     18193     18205     18208
     18195     18193     18205     18206     18195     18193     18205     18207
     18195     18193     18205     18208     18196     18199     18200     18201
     18196     18199     18200     18202     18197     18196     18199     18200
     18198     18196     18199     18200     18199     18200     18202     18203
     18199     18200     18202     18204     18199     18200     18202     18252
     18200     18202     18252     18253     18200     18202     18252     18254
     18200     18202     18252     18255     18201     18200     18202     18203
     18201     18200     18202     18204     18201     18200     18202     18252
     18202     18252     18255     18256     18202     18252     18255     18257
     18202     18252     18255     18258     18203     18202     18252     18253
     18203     18202     18252     18254     18203     18202     18252     18255
     18204     18202     18252     18253     18204     18202     18252     18254
     18204     18202     18252     18255     18205     18208     18211     18212
     18205     18208     18211     18213     18206     18205     18208     18209
     18206     18205     18208     18210     18206     18205     18208     18211
     18207     18205     18208     18209     18207     18205     18208     18210
     18207     18205     18208     18211     18208     18211     18213     18214
     18208     18211     18213     18215     18209     18208     18211     18212
     18209     18208     18211     18213     18210     18208     18211     18212
     18210     18208     18211     18213     18211     18213     18215     18216
     18211     18213     18215     18217     18211     18213     18215     18218
     18212     18211     18213     18214     18212     18211     18213     18215
     18213     18215     18218     18219     18213     18215     18218     18220
     18214     18213     18215     18216     18214     18213     18215     18217
     18214     18213     18215     18218     18215     18218     18220     18221
     18215     18218     18220     18222     18216     18215     18218     18219
     18216     18215     18218     18220     18217     18215     18218     18219
     18217     18215     18218     18220     18218     18220     18222     18223
     18218     18220     18222     18224     18218     18220     18222     18225
     18219     18218     18220     18221     18219     18218     18220     18222
     18220     18222     18225     18226     18220     18222     18225     18227
     18221     18220     18222     18223     18221     18220     18222     18224
     18221     18220     18222     18225     18222     18225     18227     18228
     18222     18225     18227     18229     18223     18222     18225     18226
     18223     18222     18225     18227     18224     18222     18225     18226
     18224     18222     18225     18227     18225     18227     18229     18230
     18225     18227     18229     18231     18225     18227     18229     18232
     18226     18225     18227     18228     18226     18225     18227     18229
     18227     18229     18232     18233     18227     18229     18232     18234
     18228     18227     18229     18230     18228     18227     18229     18231
     18228     18227     18229     18232     18229     18232     18234     18235
     18229     18232     18234     18236     18230     18229     18232     18233
     18230     18229     18232     18234     18231     18229     18232     18233
     18231     18229     18232     18234     18232     18234     18236     18237
     18232     18234     18236     18238     18232     18234     18236     18239
     18233     18232     18234     18235     18233     18232     18234     18236
     18234     18236     18239     18240     18234     18236     18239     18241
     18234     18236     18239     18242     18235     18234     18236     18237
     18235     18234     18236     18238     18235     18234     18236     18239
     18236     18239     18242     18243     18236     18239     18242     18244
     18236     18239     18242     18245     18237     18236     18239     18240
     18237     18236     18239     18241     18237     18236     18239     18242
     18238     18236     18239     18240     18238     18236     18239     18241
     18238     18236     18239     18242     18239     18242     18245     18246
     18239     18242     18245     18247     18239     18242     18245     18248
     18240     18239     18242     18243     18240     18239     18242     18244
     18240     18239     18242     18245     18241     18239     18242     18243
     18241     18239     18242     18244     18241     18239     18242     18245
     18242     18245     18248     18249     18242     18245     18248     18250
     18242     18245     18248     18251     18243     18242     18245     18246
     18243     18242     18245     18247     18243     18242     18245     18248
     18244     18242     18245     18246     18244     18242     18245     18247
     18244     18242     18245     18248     18246     18245     18248     18249
     18246     18245     18248     18250     18246     18245     18248     18251
     18247     18245     18248     18249     18247     18245     18248     18250
     18247     18245     18248     18251     18252     18255     18258     18259
     18252     18255     18258     18260     18252     18255     18258     18261
     18253     18252     18255     18256     18253     18252     18255     18257
     18253     18252     18255     18258     18254     18252     18255     18256
     18254     18252     18255     18257     18254     18252     18255     18258
     18255     18258     18261     18262     18255     18258     18261     18263
     18255     18258     18261     18264     18256     18255     18258     18259
     18256     18255     18258     18260     18256     18255     18258     18261
     18257     18255     18258     18259     18257     18255     18258     18260
     18257     18255     18258     18261     18258     18261     18264     18265
     18258     18261     18264     18266     18258     18261     18264     18267
     18259     18258     18261     18262     18259     18258     18261     18263
     18259     18258     18261     18264     18260     18258     18261     18262
     18260     18258     18261     18263     18260     18258     18261     18264
     18261     18264     18267     18268     18261     18264     18267     18269
     18261     18264     18267     18270     18262     18261     18264     18265
     18262     18261     18264     18266     18262     18261     18264     18267
     18263     18261     18264     18265     18263     18261     18264     18266
     18263     18261     18264     18267     18264     18267     18270     18271
     18264     18267     18270     18272     18264     18267     18270     18273
     18265     18264     18267     18268     18265     18264     18267     18269
     18265     18264     18267     18270     18266     18264     18267     18268
     18266     18264     18267     18269     18266     18264     18267     18270
     18267     18270     18273     18274     18267     18270     18273     18275
     18267     18270     18273     18276     18268     18267     18270     18271
     18268     18267     18270     18272     18268     18267     18270     18273
     18269     18267     18270     18271     18269     18267     18270     18272
     18269     18267     18270     18273     18270     18273     18276     18277
     18270     18273     18276     18278     18270     18273     18276     18279
     18271     18270     18273     18274     18271     18270     18273     18275
     18271     18270     18273     18276     18272     18270     18273     18274
     18272     18270     18273     18275     18272     18270     18273     18276
     18273     18276     18279     18280     18273     18276     18279     18281
     18273     18276     18279     18282     18274     18273     18276     18277
     18274     18273     18276     18278     18274     18273     18276     18279
     18275     18273     18276     18277     18275     18273     18276     18278
     18275     18273     18276     18279     18276     18279     18282     18283
     18276     18279     18282     18284     18276     18279     18282     18285
     18277     18276     18279     18280     18277     18276     18279     18281
     18277     18276     18279     18282     18278     18276     18279     18280
     18278     18276     18279     18281     18278     18276     18279     18282
     18279     18282     18285     18286     18279     18282     18285     18287
     18279     18282     18285     18288     18280     18279     18282     18283
     18280     18279     18282     18284     18280     18279     18282     18285
     18281     18279     18282     18283     18281     18279     18282     18284
     18281     18279     18282     18285     18282     18285     18288     18289
     18282     18285     18288     18290     18282     18285     18288     18291
     18283     18282     18285     18286     18283     18282     18285     18287
     18283     18282     18285     18288     18284     18282     18285     18286
     18284     18282     18285     18287     18284     18282     18285     18288
     18285     18288     18291     18292     18285     18288     18291     18293
     18285     18288     18291     18294     18286     18285     18288     18289
     18286     18285     18288     18290     18286     18285     18288     18291
     18287     18285     18288     18289     18287     18285     18288     18290
     18287     18285     18288     18291     18288     18291     18294     18295
     18288     18291     18294     18296     18288     18291     18294     18297
     18289     18288     18291     18292     18289     18288     18291     18293
     18289     18288     18291     18294     18290     18288     18291     18292
     18290     18288     18291     18293     18290     18288     18291     18294
     18291     18294     18297     18298     18291     18294     18297     18299
     18291     18294     18297     18300     18292     18291     18294     18295
     18292     18291     18294     18296     18292     18291     18294     18297
     18293     18291     18294     18295     18293     18291     18294     18296
     18293     18291     18294     18297     18295     18294     18297     18298
     18295     18294     18297     18299     18295     18294     18297     18300
     18296     18294     18297     18298     18296     18294     18297     18299
     18296     18294     18297     18300     18301     18305     18308     18309
     18301     18305     18308     18310     18301     18305     18308     18314
     18302     18301     18305     18306     18302     18301     18305     18307
     18302     18301     18305     18308     18303     18301     18305     18306
     18303     18301     18305     18307     18303     18301     18305     18308
     18304     18301     18305     18306     18304     18301     18305     18307
     18304     18301     18305     18308     18305     18308     18314     18311
     18306     18305     18308     18309     18306     18305     18308     18310
     18306     18305     18308     18314     18307     18305     18308     18309
     18307     18305     18308     18310     18307     18305     18308     18314
     18308     18314     18311     18312     18308     18314     18311     18313
     18308     18314     18311     18315     18309     18308     18314     18311
     18310     18308     18314     18311     18311     18315     18316     18317
     18311     18315     18316     18318     18311     18315     18316     18319
     18312     18311     18315     18316     18313     18311     18315     18316
     18314     18311     18315     18316     18315     18316     18319     18320
     18315     18316     18319     18321     18315     18316     18319     18327
     18316     18319     18321     18322     18316     18319     18327     18328
     18316     18319     18327     18329     18316     18319     18327     18330
     18317     18316     18319     18320     18317     18316     18319     18321
     18317     18316     18319     18327     18318     18316     18319     18320
     18318     18316     18319     18321     18318     18316     18319     18327
     18319     18321     18322     18323     18319     18321     18322     18324
     18319     18327     18330     18331     18320     18319     18321     18322
     18320     18319     18327     18328     18320     18319     18327     18329
     18320     18319     18327     18330     18321     18319     18327     18328
     18321     18319     18327     18329     18321     18319     18327     18330
     18321     18322     18324     18325     18321     18322     18324     18326
     18321     18322     18324     18336     18322     18321     18319     18327
     18322     18324     18336     18337     18322     18324     18336     18338
     18322     18324     18336     18339     18323     18322     18324     18325
     18323     18322     18324     18326     18323     18322     18324     18336
     18324     18336     18339     18340     18324     18336     18339     18341
     18324     18336     18339     18342     18325     18324     18336     18337
     18325     18324     18336     18338     18325     18324     18336     18339
     18326     18324     18336     18337     18326     18324     18336     18338
     18326     18324     18336     18339     18327     18330     18331     18332
     18327     18330     18331     18333     18328     18327     18330     18331
     18329     18327     18330     18331     18330     18331     18333     18334
     18330     18331     18333     18335     18330     18331     18333     18383
     18331     18333     18383     18384     18331     18333     18383     18385
     18331     18333     18383     18386     18332     18331     18333     18334
     18332     18331     18333     18335     18332     18331     18333     18383
     18333     18383     18386     18387     18333     18383     18386     18388
     18333     18383     18386     18389     18334     18333     18383     18384
     18334     18333     18383     18385     18334     18333     18383     18386
     18335     18333     18383     18384     18335     18333     18383     18385
     18335     18333     18383     18386     18336     18339     18342     18343
     18336     18339     18342     18344     18337     18336     18339     18340
     18337     18336     18339     18341     18337     18336     18339     18342
     18338     18336     18339     18340     18338     18336     18339     18341
     18338     18336     18339     18342     18339     18342     18344     18345
     18339     18342     18344     18346     18340     18339     18342     18343
     18340     18339     18342     18344     18341     18339     18342     18343
     18341     18339     18342     18344     18342     18344     18346     18347
     18342     18344     18346     18348     18342     18344     18346     18349
     18343     18342     18344     18345     18343     18342     18344     18346
     18344     18346     18349     18350     18344     18346     18349     18351
     18345     18344     18346     18347     18345     18344     18346     18348
     18345     18344     18346     18349     18346     18349     18351     18352
     18346     18349     18351     18353     18347     18346     18349     18350
     18347     18346     18349     18351     18348     18346     18349     18350
     18348     18346     18349     18351     18349     18351     18353     18354
     18349     18351     18353     18355     18349     18351     18353     18356
     18350     18349     18351     18352     18350     18349     18351     18353
     18351     18353     18356     18357     18351     18353     18356     18358
     18352     18351     18353     18354     18352     18351     18353     18355
     18352     18351     18353     18356     18353     18356     18358     18359
     18353     18356     18358     18360     18354     18353     18356     18357
     18354     18353     18356     18358     18355     18353     18356     18357
     18355     18353     18356     18358     18356     18358     18360     18361
     18356     18358     18360     18362     18356     18358     18360     18363
     18357     18356     18358     18359     18357     18356     18358     18360
     18358     18360     18363     18364     18358     18360     18363     18365
     18359     18358     18360     18361     18359     18358     18360     18362
     18359     18358     18360     18363     18360     18363     18365     18366
     18360     18363     18365     18367     18361     18360     18363     18364
     18361     18360     18363     18365     18362     18360     18363     18364
     18362     18360     18363     18365     18363     18365     18367     18368
     18363     18365     18367     18369     18363     18365     18367     18370
     18364     18363     18365     18366     18364     18363     18365     18367
     18365     18367     18370     18371     18365     18367     18370     18372
     18365     18367     18370     18373     18366     18365     18367     18368
     18366     18365     18367     18369     18366     18365     18367     18370
     18367     18370     18373     18374     18367     18370     18373     18375
     18367     18370     18373     18376     18368     18367     18370     18371
     18368     18367     18370     18372     18368     18367     18370     18373
     18369     18367     18370     18371     18369     18367     18370     18372
     18369     18367     18370     18373     18370     18373     18376     18377
     18370     18373     18376     18378     18370     18373     18376     18379
     18371     18370     18373     18374     18371     18370     18373     18375
     18371     18370     18373     18376     18372     18370     18373     18374
     18372     18370     18373     18375     18372     18370     18373     18376
     18373     18376     18379     18380     18373     18376     18379     18381
     18373     18376     18379     18382     18374     18373     18376     18377
     18374     18373     18376     18378     18374     18373     18376     18379
     18375     18373     18376     18377     18375     18373     18376     18378
     18375     18373     18376     18379     18377     18376     18379     18380
     18377     18376     18379     18381     18377     18376     18379     18382
     18378     18376     18379     18380     18378     18376     18379     18381
     18378     18376     18379     18382     18383     18386     18389     18390
     18383     18386     18389     18391     18383     18386     18389     18392
     18384     18383     18386     18387     18384     18383     18386     18388
     18384     18383     18386     18389     18385     18383     18386     18387
     18385     18383     18386     18388     18385     18383     18386     18389
     18386     18389     18392     18393     18386     18389     18392     18394
     18386     18389     18392     18395     18387     18386     18389     18390
     18387     18386     18389     18391     18387     18386     18389     18392
     18388     18386     18389     18390     18388     18386     18389     18391
     18388     18386     18389     18392     18389     18392     18395     18396
     18389     18392     18395     18397     18389     18392     18395     18398
     18390     18389     18392     18393     18390     18389     18392     18394
     18390     18389     18392     18395     18391     18389     18392     18393
     18391     18389     18392     18394     18391     18389     18392     18395
     18392     18395     18398     18399     18392     18395     18398     18400
     18392     18395     18398     18401     18393     18392     18395     18396
     18393     18392     18395     18397     18393     18392     18395     18398
     18394     18392     18395     18396     18394     18392     18395     18397
     18394     18392     18395     18398     18395     18398     18401     18402
     18395     18398     18401     18403     18395     18398     18401     18404
     18396     18395     18398     18399     18396     18395     18398     18400
     18396     18395     18398     18401     18397     18395     18398     18399
     18397     18395     18398     18400     18397     18395     18398     18401
     18398     18401     18404     18405     18398     18401     18404     18406
     18398     18401     18404     18407     18399     18398     18401     18402
     18399     18398     18401     18403     18399     18398     18401     18404
     18400     18398     18401     18402     18400     18398     18401     18403
     18400     18398     18401     18404     18401     18404     18407     18408
     18401     18404     18407     18409     18401     18404     18407     18410
     18402     18401     18404     18405     18402     18401     18404     18406
     18402     18401     18404     18407     18403     18401     18404     18405
     18403     18401     18404     18406     18403     18401     18404     18407
     18404     18407     18410     18411     18404     18407     18410     18412
     18404     18407     18410     18413     18405     18404     18407     18408
     18405     18404     18407     18409     18405     18404     18407     18410
     18406     18404     18407     18408     18406     18404     18407     18409
     18406     18404     18407     18410     18407     18410     18413     18414
     18407     18410     18413     18415     18407     18410     18413     18416
     18408     18407     18410     18411     18408     18407     18410     18412
     18408     18407     18410     18413     18409     18407     18410     18411
     18409     18407     18410     18412     18409     18407     18410     18413
     18410     18413     18416     18417     18410     18413     18416     18418
     18410     18413     18416     18419     18411     18410     18413     18414
     18411     18410     18413     18415     18411     18410     18413     18416
     18412     18410     18413     18414     18412     18410     18413     18415
     18412     18410     18413     18416     18413     18416     18419     18420
     18413     18416     18419     18421     18413     18416     18419     18422
     18414     18413     18416     18417     18414     18413     18416     18418
     18414     18413     18416     18419     18415     18413     18416     18417
     18415     18413     18416     18418     18415     18413     18416     18419
     18416     18419     18422     18423     18416     18419     18422     18424
     18416     18419     18422     18425     18417     18416     18419     18420
     18417     18416     18419     18421     18417     18416     18419     18422
     18418     18416     18419     18420     18418     18416     18419     18421
     18418     18416     18419     18422     18419     18422     18425     18426
     18419     18422     18425     18427     18419     18422     18425     18428
     18420     18419     18422     18423     18420     18419     18422     18424
     18420     18419     18422     18425     18421     18419     18422     18423
     18421     18419     18422     18424     18421     18419     18422     18425
     18422     18425     18428     18429     18422     18425     18428     18430
     18422     18425     18428     18431     18423     18422     18425     18426
     18423     18422     18425     18427     18423     18422     18425     18428
     18424     18422     18425     18426     18424     18422     18425     18427
     18424     18422     18425     18428     18426     18425     18428     18429
     18426     18425     18428     18430     18426     18425     18428     18431
     18427     18425     18428     18429     18427     18425     18428     18430
     18427     18425     18428     18431     18432     18436     18439     18440
     18432     18436     18439     18470     18432     18478     18475     18470
     18432     18478     18475     18476     18432     18478     18475     18477
     18433     18432     18434     18435     18433     18432     18436     18437
     18433     18432     18436     18438     18433     18432     18436     18439
     18433     18432     18478     18475     18433     18432     18478     18479
     18433     18432     18478     18480     18434     18432     18436     18437
     18434     18432     18436     18438     18434     18432     18436     18439
     18434     18432     18478     18475     18434     18432     18478     18479
     18434     18432     18478     18480     18435     18434     18432     18436
     18435     18434     18432     18478     18436     18432     18478     18475
     18436     18432     18478     18479     18436     18432     18478     18480
     18436     18439     18440     18441     18436     18439     18440     18442
     18436     18439     18470     18468     18436     18439     18470     18471
     18436     18439     18470     18475     18437     18436     18432     18478
     18437     18436     18439     18440     18437     18436     18439     18470
     18438     18436     18432     18478     18438     18436     18439     18440
     18438     18436     18439     18470     18439     18436     18432     18478
     18439     18440     18442     18443     18439     18440     18442     18444
     18439     18440     18442     18445     18439     18470     18468     18445
     18439     18470     18468     18465     18439     18470     18468     18469
     18439     18470     18471     18472     18439     18470     18471     18473
     18439     18470     18471     18474     18439     18470     18475     18476
     18439     18470     18475     18477     18439     18470     18475     18478
     18440     18439     18470     18468     18440     18439     18470     18471
     18440     18439     18470     18475     18440     18442     18445     18446
     18440     18442     18445     18447     18440     18442     18445     18468
     18441     18440     18439     18470     18441     18440     18442     18443
     18441     18440     18442     18444     18441     18440     18442     18445
     18442     18440     18439     18470     18442     18445     18447     18448
     18442     18445     18447     18449     18442     18445     18447     18457
     18442     18445     18468     18465     18442     18445     18468     18469
     18442     18445     18468     18470     18443     18442     18445     18446
     18443     18442     18445     18447     18443     18442     18445     18468
     18444     18442     18445     18446     18444     18442     18445     18447
     18444     18442     18445     18468     18445     18447     18449     18450
     18445     18447     18449     18451     18445     18447     18449     18452
     18445     18447     18457     18455     18445     18447     18457     18458
     18445     18447     18457     18462     18445     18468     18465     18462
     18445     18468     18465     18466     18445     18468     18465     18467
     18445     18468     18470     18471     18445     18468     18470     18475
     18446     18445     18447     18448     18446     18445     18447     18449
     18446     18445     18447     18457     18446     18445     18468     18465
     18446     18445     18468     18469     18446     18445     18468     18470
     18447     18445     18468     18465     18447     18445     18468     18469
     18447     18445     18468     18470     18447     18449     18452     18453
     18447     18449     18452     18454     18447     18449     18452     18455
     18447     18457     18455     18452     18447     18457     18455     18456
     18447     18457     18455     18481     18447     18457     18458     18459
     18447     18457     18458     18460     18447     18457     18458     18461
     18447     18457     18462     18463     18447     18457     18462     18464
     18447     18457     18462     18465     18448     18447     18445     18468
     18448     18447     18449     18450     18448     18447     18449     18451
     18448     18447     18449     18452     18448     18447     18457     18455
     18448     18447     18457     18458     18448     18447     18457     18462
     18449     18447     18445     18468     18449     18447     18457     18455
     18449     18447     18457     18458     18449     18447     18457     18462
     18449     18452     18455     18456     18449     18452     18455     18457
     18449     18452     18455     18481     18450     18449     18447     18457
     18450     18449     18452     18453     18450     18449     18452     18454
     18450     18449     18452     18455     18451     18449     18447     18457
     18451     18449     18452     18453     18451     18449     18452     18454
     18451     18449     18452     18455     18452     18449     18447     18457
     18452     18455     18457     18458     18452     18455     18457     18462
     18452     18455     18481     18482     18452     18455     18481     18483
     18452     18455     18481     18487     18453     18452     18455     18456
     18453     18452     18455     18457     18453     18452     18455     18481
     18454     18452     18455     18456     18454     18452     18455     18457
     18454     18452     18455     18481     18455     18457     18458     18459
     18455     18457     18458     18460     18455     18457     18458     18461
     18455     18457     18462     18463     18455     18457     18462     18464
     18455     18457     18462     18465     18455     18481     18483     18484
     18455     18481     18483     18485     18455     18481     18483     18486
     18455     18481     18487     18488     18455     18481     18487     18489
     18455     18481     18487     18490     18456     18455     18457     18458
     18456     18455     18457     18462     18456     18455     18481     18482
     18456     18455     18481     18483     18456     18455     18481     18487
     18457     18447     18445     18468     18457     18455     18481     18482
     18457     18455     18481     18483     18457     18455     18481     18487
     18457     18462     18465     18466     18457     18462     18465     18467
     18457     18462     18465     18468     18458     18457     18455     18481
     18458     18457     18462     18463     18458     18457     18462     18464
     18458     18457     18462     18465     18459     18458     18457     18462
     18460     18458     18457     18462     18461     18458     18457     18462
     18462     18457     18455     18481     18462     18465     18468     18469
     18462     18465     18468     18470     18463     18462     18465     18466
     18463     18462     18465     18467     18463     18462     18465     18468
     18464     18462     18465     18466     18464     18462     18465     18467
     18464     18462     18465     18468     18465     18468     18470     18471
     18465     18468     18470     18475     18466     18465     18468     18469
     18466     18465     18468     18470     18467     18465     18468     18469
     18467     18465     18468     18470     18468     18470     18471     18472
     18468     18470     18471     18473     18468     18470     18471     18474
     18468     18470     18475     18476     18468     18470     18475     18477
     18468     18470     18475     18478     18469     18468     18470     18471
     18469     18468     18470     18475     18470     18475     18478     18479
     18470     18475     18478     18480     18471     18470     18475     18476
     18471     18470     18475     18477     18471     18470     18475     18478
     18472     18471     18470     18475     18473     18471     18470     18475
     18474     18471     18470     18475     18476     18475     18478     18479
     18476     18475     18478     18480     18477     18475     18478     18479
     18477     18475     18478     18480     18481     18487     18490     18491
     18481     18487     18490     18492     18481     18487     18490     18493
     18482     18481     18483     18484     18482     18481     18483     18485
     18482     18481     18483     18486     18482     18481     18487     18488
     18482     18481     18487     18489     18482     18481     18487     18490
     18483     18481     18487     18488     18483     18481     18487     18489
     18483     18481     18487     18490     18484     18483     18481     18487
     18485     18483     18481     18487     18486     18483     18481     18487
     18487     18490     18493     18494     18487     18490     18493     18495
     18487     18490     18493     18496     18488     18487     18490     18491
     18488     18487     18490     18492     18488     18487     18490     18493
     18489     18487     18490     18491     18489     18487     18490     18492
     18489     18487     18490     18493     18490     18493     18496     18497
     18490     18493     18496     18498     18490     18493     18496     18502
     18491     18490     18493     18494     18491     18490     18493     18495
     18491     18490     18493     18496     18492     18490     18493     18494
     18492     18490     18493     18495     18492     18490     18493     18496
     18493     18496     18498     18499     18493     18496     18498     18500
     18493     18496     18498     18501     18493     18496     18502     18503
     18493     18496     18502     18504     18493     18496     18502     18505
     18494     18493     18496     18497     18494     18493     18496     18498
     18494     18493     18496     18502     18495     18493     18496     18497
     18495     18493     18496     18498     18495     18493     18496     18502
     18497     18496     18498     18499     18497     18496     18498     18500
     18497     18496     18498     18501     18497     18496     18502     18503
     18497     18496     18502     18504     18497     18496     18502     18505
     18498     18496     18502     18503     18498     18496     18502     18504
     18498     18496     18502     18505     18499     18498     18496     18502
     18500     18498     18496     18502     18501     18498     18496     18502
     18506     18510     18513     18514     18506     18510     18513     18515
     18506     18510     18513     18519     18507     18506     18510     18511
     18507     18506     18510     18512     18507     18506     18510     18513
     18508     18506     18510     18511     18508     18506     18510     18512
     18508     18506     18510     18513     18509     18506     18510     18511
     18509     18506     18510     18512     18509     18506     18510     18513
     18510     18513     18519     18516     18511     18510     18513     18514
     18511     18510     18513     18515     18511     18510     18513     18519
     18512     18510     18513     18514     18512     18510     18513     18515
     18512     18510     18513     18519     18513     18519     18516     18517
     18513     18519     18516     18518     18513     18519     18516     18520
     18514     18513     18519     18516     18515     18513     18519     18516
     18516     18520     18521     18522     18516     18520     18521     18523
     18516     18520     18521     18524     18517     18516     18520     18521
     18518     18516     18520     18521     18519     18516     18520     18521
     18520     18521     18524     18525     18520     18521     18524     18526
     18520     18521     18524     18532     18521     18524     18526     18527
     18521     18524     18532     18533     18521     18524     18532     18534
     18521     18524     18532     18535     18522     18521     18524     18525
     18522     18521     18524     18526     18522     18521     18524     18532
     18523     18521     18524     18525     18523     18521     18524     18526
     18523     18521     18524     18532     18524     18526     18527     18528
     18524     18526     18527     18529     18524     18532     18535     18536
     18525     18524     18526     18527     18525     18524     18532     18533
     18525     18524     18532     18534     18525     18524     18532     18535
     18526     18524     18532     18533     18526     18524     18532     18534
     18526     18524     18532     18535     18526     18527     18529     18530
     18526     18527     18529     18531     18526     18527     18529     18541
     18527     18526     18524     18532     18527     18529     18541     18542
     18527     18529     18541     18543     18527     18529     18541     18544
     18528     18527     18529     18530     18528     18527     18529     18531
     18528     18527     18529     18541     18529     18541     18544     18545
     18529     18541     18544     18546     18529     18541     18544     18547
     18530     18529     18541     18542     18530     18529     18541     18543
     18530     18529     18541     18544     18531     18529     18541     18542
     18531     18529     18541     18543     18531     18529     18541     18544
     18532     18535     18536     18537     18532     18535     18536     18538
     18533     18532     18535     18536     18534     18532     18535     18536
     18535     18536     18538     18539     18535     18536     18538     18540
     18535     18536     18538     18588     18536     18538     18588     18589
     18536     18538     18588     18590     18536     18538     18588     18591
     18537     18536     18538     18539     18537     18536     18538     18540
     18537     18536     18538     18588     18538     18588     18591     18592
     18538     18588     18591     18593     18538     18588     18591     18594
     18539     18538     18588     18589     18539     18538     18588     18590
     18539     18538     18588     18591     18540     18538     18588     18589
     18540     18538     18588     18590     18540     18538     18588     18591
     18541     18544     18547     18548     18541     18544     18547     18549
     18542     18541     18544     18545     18542     18541     18544     18546
     18542     18541     18544     18547     18543     18541     18544     18545
     18543     18541     18544     18546     18543     18541     18544     18547
     18544     18547     18549     18550     18544     18547     18549     18551
     18545     18544     18547     18548     18545     18544     18547     18549
     18546     18544     18547     18548     18546     18544     18547     18549
     18547     18549     18551     18552     18547     18549     18551     18553
     18547     18549     18551     18554     18548     18547     18549     18550
     18548     18547     18549     18551     18549     18551     18554     18555
     18549     18551     18554     18556     18550     18549     18551     18552
     18550     18549     18551     18553     18550     18549     18551     18554
     18551     18554     18556     18557     18551     18554     18556     18558
     18552     18551     18554     18555     18552     18551     18554     18556
     18553     18551     18554     18555     18553     18551     18554     18556
     18554     18556     18558     18559     18554     18556     18558     18560
     18554     18556     18558     18561     18555     18554     18556     18557
     18555     18554     18556     18558     18556     18558     18561     18562
     18556     18558     18561     18563     18557     18556     18558     18559
     18557     18556     18558     18560     18557     18556     18558     18561
     18558     18561     18563     18564     18558     18561     18563     18565
     18559     18558     18561     18562     18559     18558     18561     18563
     18560     18558     18561     18562     18560     18558     18561     18563
     18561     18563     18565     18566     18561     18563     18565     18567
     18561     18563     18565     18568     18562     18561     18563     18564
     18562     18561     18563     18565     18563     18565     18568     18569
     18563     18565     18568     18570     18564     18563     18565     18566
     18564     18563     18565     18567     18564     18563     18565     18568
     18565     18568     18570     18571     18565     18568     18570     18572
     18566     18565     18568     18569     18566     18565     18568     18570
     18567     18565     18568     18569     18567     18565     18568     18570
     18568     18570     18572     18573     18568     18570     18572     18574
     18568     18570     18572     18575     18569     18568     18570     18571
     18569     18568     18570     18572     18570     18572     18575     18576
     18570     18572     18575     18577     18570     18572     18575     18578
     18571     18570     18572     18573     18571     18570     18572     18574
     18571     18570     18572     18575     18572     18575     18578     18579
     18572     18575     18578     18580     18572     18575     18578     18581
     18573     18572     18575     18576     18573     18572     18575     18577
     18573     18572     18575     18578     18574     18572     18575     18576
     18574     18572     18575     18577     18574     18572     18575     18578
     18575     18578     18581     18582     18575     18578     18581     18583
     18575     18578     18581     18584     18576     18575     18578     18579
     18576     18575     18578     18580     18576     18575     18578     18581
     18577     18575     18578     18579     18577     18575     18578     18580
     18577     18575     18578     18581     18578     18581     18584     18585
     18578     18581     18584     18586     18578     18581     18584     18587
     18579     18578     18581     18582     18579     18578     18581     18583
     18579     18578     18581     18584     18580     18578     18581     18582
     18580     18578     18581     18583     18580     18578     18581     18584
     18582     18581     18584     18585     18582     18581     18584     18586
     18582     18581     18584     18587     18583     18581     18584     18585
     18583     18581     18584     18586     18583     18581     18584     18587
     18588     18591     18594     18595     18588     18591     18594     18596
     18588     18591     18594     18597     18589     18588     18591     18592
     18589     18588     18591     18593     18589     18588     18591     18594
     18590     18588     18591     18592     18590     18588     18591     18593
     18590     18588     18591     18594     18591     18594     18597     18598
     18591     18594     18597     18599     18591     18594     18597     18600
     18592     18591     18594     18595     18592     18591     18594     18596
     18592     18591     18594     18597     18593     18591     18594     18595
     18593     18591     18594     18596     18593     18591     18594     18597
     18594     18597     18600     18601     18594     18597     18600     18602
     18594     18597     18600     18603     18595     18594     18597     18598
     18595     18594     18597     18599     18595     18594     18597     18600
     18596     18594     18597     18598     18596     18594     18597     18599
     18596     18594     18597     18600     18597     18600     18603     18604
     18597     18600     18603     18605     18597     18600     18603     18606
     18598     18597     18600     18601     18598     18597     18600     18602
     18598     18597     18600     18603     18599     18597     18600     18601
     18599     18597     18600     18602     18599     18597     18600     18603
     18600     18603     18606     18607     18600     18603     18606     18608
     18600     18603     18606     18609     18601     18600     18603     18604
     18601     18600     18603     18605     18601     18600     18603     18606
     18602     18600     18603     18604     18602     18600     18603     18605
     18602     18600     18603     18606     18603     18606     18609     18610
     18603     18606     18609     18611     18603     18606     18609     18612
     18604     18603     18606     18607     18604     18603     18606     18608
     18604     18603     18606     18609     18605     18603     18606     18607
     18605     18603     18606     18608     18605     18603     18606     18609
     18606     18609     18612     18613     18606     18609     18612     18614
     18606     18609     18612     18615     18607     18606     18609     18610
     18607     18606     18609     18611     18607     18606     18609     18612
     18608     18606     18609     18610     18608     18606     18609     18611
     18608     18606     18609     18612     18609     18612     18615     18616
     18609     18612     18615     18617     18609     18612     18615     18618
     18610     18609     18612     18613     18610     18609     18612     18614
     18610     18609     18612     18615     18611     18609     18612     18613
     18611     18609     18612     18614     18611     18609     18612     18615
     18612     18615     18618     18619     18612     18615     18618     18620
     18612     18615     18618     18621     18613     18612     18615     18616
     18613     18612     18615     18617     18613     18612     18615     18618
     18614     18612     18615     18616     18614     18612     18615     18617
     18614     18612     18615     18618     18615     18618     18621     18622
     18615     18618     18621     18623     18615     18618     18621     18624
     18616     18615     18618     18619     18616     18615     18618     18620
     18616     18615     18618     18621     18617     18615     18618     18619
     18617     18615     18618     18620     18617     18615     18618     18621
     18618     18621     18624     18625     18618     18621     18624     18626
     18618     18621     18624     18627     18619     18618     18621     18622
     18619     18618     18621     18623     18619     18618     18621     18624
     18620     18618     18621     18622     18620     18618     18621     18623
     18620     18618     18621     18624     18621     18624     18627     18628
     18621     18624     18627     18629     18621     18624     18627     18630
     18622     18621     18624     18625     18622     18621     18624     18626
     18622     18621     18624     18627     18623     18621     18624     18625
     18623     18621     18624     18626     18623     18621     18624     18627
     18624     18627     18630     18631     18624     18627     18630     18632
     18624     18627     18630     18633     18625     18624     18627     18628
     18625     18624     18627     18629     18625     18624     18627     18630
     18626     18624     18627     18628     18626     18624     18627     18629
     18626     18624     18627     18630     18627     18630     18633     18634
     18627     18630     18633     18635     18627     18630     18633     18636
     18628     18627     18630     18631     18628     18627     18630     18632
     18628     18627     18630     18633     18629     18627     18630     18631
     18629     18627     18630     18632     18629     18627     18630     18633
     18631     18630     18633     18634     18631     18630     18633     18635
     18631     18630     18633     18636     18632     18630     18633     18634
     18632     18630     18633     18635     18632     18630     18633     18636
     18637     18641     18644     18645     18637     18641     18644     18675
     18637     18683     18680     18675     18637     18683     18680     18681
     18637     18683     18680     18682     18638     18637     18639     18640
     18638     18637     18641     18642     18638     18637     18641     18643
     18638     18637     18641     18644     18638     18637     18683     18680
     18638     18637     18683     18684     18638     18637     18683     18685
     18639     18637     18641     18642     18639     18637     18641     18643
     18639     18637     18641     18644     18639     18637     18683     18680
     18639     18637     18683     18684     18639     18637     18683     18685
     18640     18639     18637     18641     18640     18639     18637     18683
     18641     18637     18683     18680     18641     18637     18683     18684
     18641     18637     18683     18685     18641     18644     18645     18646
     18641     18644     18645     18647     18641     18644     18675     18673
     18641     18644     18675     18676     18641     18644     18675     18680
     18642     18641     18637     18683     18642     18641     18644     18645
     18642     18641     18644     18675     18643     18641     18637     18683
     18643     18641     18644     18645     18643     18641     18644     18675
     18644     18641     18637     18683     18644     18645     18647     18648
     18644     18645     18647     18649     18644     18645     18647     18650
     18644     18675     18673     18650     18644     18675     18673     18670
     18644     18675     18673     18674     18644     18675     18676     18677
     18644     18675     18676     18678     18644     18675     18676     18679
     18644     18675     18680     18681     18644     18675     18680     18682
     18644     18675     18680     18683     18645     18644     18675     18673
     18645     18644     18675     18676     18645     18644     18675     18680
     18645     18647     18650     18651     18645     18647     18650     18652
     18645     18647     18650     18673     18646     18645     18644     18675
     18646     18645     18647     18648     18646     18645     18647     18649
     18646     18645     18647     18650     18647     18645     18644     18675
     18647     18650     18652     18653     18647     18650     18652     18654
     18647     18650     18652     18662     18647     18650     18673     18670
     18647     18650     18673     18674     18647     18650     18673     18675
     18648     18647     18650     18651     18648     18647     18650     18652
     18648     18647     18650     18673     18649     18647     18650     18651
     18649     18647     18650     18652     18649     18647     18650     18673
     18650     18652     18654     18655     18650     18652     18654     18656
     18650     18652     18654     18657     18650     18652     18662     18660
     18650     18652     18662     18663     18650     18652     18662     18667
     18650     18673     18670     18667     18650     18673     18670     18671
     18650     18673     18670     18672     18650     18673     18675     18676
     18650     18673     18675     18680     18651     18650     18652     18653
     18651     18650     18652     18654     18651     18650     18652     18662
     18651     18650     18673     18670     18651     18650     18673     18674
     18651     18650     18673     18675     18652     18650     18673     18670
     18652     18650     18673     18674     18652     18650     18673     18675
     18652     18654     18657     18658     18652     18654     18657     18659
     18652     18654     18657     18660     18652     18662     18660     18657
     18652     18662     18660     18661     18652     18662     18660     18686
     18652     18662     18663     18664     18652     18662     18663     18665
     18652     18662     18663     18666     18652     18662     18667     18668
     18652     18662     18667     18669     18652     18662     18667     18670
     18653     18652     18650     18673     18653     18652     18654     18655
     18653     18652     18654     18656     18653     18652     18654     18657
     18653     18652     18662     18660     18653     18652     18662     18663
     18653     18652     18662     18667     18654     18652     18650     18673
     18654     18652     18662     18660     18654     18652     18662     18663
     18654     18652     18662     18667     18654     18657     18660     18661
     18654     18657     18660     18662     18654     18657     18660     18686
     18655     18654     18652     18662     18655     18654     18657     18658
     18655     18654     18657     18659     18655     18654     18657     18660
     18656     18654     18652     18662     18656     18654     18657     18658
     18656     18654     18657     18659     18656     18654     18657     18660
     18657     18654     18652     18662     18657     18660     18662     18663
     18657     18660     18662     18667     18657     18660     18686     18687
     18657     18660     18686     18688     18657     18660     18686     18692
     18658     18657     18660     18661     18658     18657     18660     18662
     18658     18657     18660     18686     18659     18657     18660     18661
     18659     18657     18660     18662     18659     18657     18660     18686
     18660     18662     18663     18664     18660     18662     18663     18665
     18660     18662     18663     18666     18660     18662     18667     18668
     18660     18662     18667     18669     18660     18662     18667     18670
     18660     18686     18688     18689     18660     18686     18688     18690
     18660     18686     18688     18691     18660     18686     18692     18693
     18660     18686     18692     18694     18660     18686     18692     18695
     18661     18660     18662     18663     18661     18660     18662     18667
     18661     18660     18686     18687     18661     18660     18686     18688
     18661     18660     18686     18692     18662     18652     18650     18673
     18662     18660     18686     18687     18662     18660     18686     18688
     18662     18660     18686     18692     18662     18667     18670     18671
     18662     18667     18670     18672     18662     18667     18670     18673
     18663     18662     18660     18686     18663     18662     18667     18668
     18663     18662     18667     18669     18663     18662     18667     18670
     18664     18663     18662     18667     18665     18663     18662     18667
     18666     18663     18662     18667     18667     18662     18660     18686
     18667     18670     18673     18674     18667     18670     18673     18675
     18668     18667     18670     18671     18668     18667     18670     18672
     18668     18667     18670     18673     18669     18667     18670     18671
     18669     18667     18670     18672     18669     18667     18670     18673
     18670     18673     18675     18676     18670     18673     18675     18680
     18671     18670     18673     18674     18671     18670     18673     18675
     18672     18670     18673     18674     18672     18670     18673     18675
     18673     18675     18676     18677     18673     18675     18676     18678
     18673     18675     18676     18679     18673     18675     18680     18681
     18673     18675     18680     18682     18673     18675     18680     18683
     18674     18673     18675     18676     18674     18673     18675     18680
     18675     18680     18683     18684     18675     18680     18683     18685
     18676     18675     18680     18681     18676     18675     18680     18682
     18676     18675     18680     18683     18677     18676     18675     18680
     18678     18676     18675     18680     18679     18676     18675     18680
     18681     18680     18683     18684     18681     18680     18683     18685
     18682     18680     18683     18684     18682     18680     18683     18685
     18686     18692     18695     18696     18686     18692     18695     18697
     18686     18692     18695     18698     18687     18686     18688     18689
     18687     18686     18688     18690     18687     18686     18688     18691
     18687     18686     18692     18693     18687     18686     18692     18694
     18687     18686     18692     18695     18688     18686     18692     18693
     18688     18686     18692     18694     18688     18686     18692     18695
     18689     18688     18686     18692     18690     18688     18686     18692
     18691     18688     18686     18692     18692     18695     18698     18699
     18692     18695     18698     18700     18692     18695     18698     18701
     18693     18692     18695     18696     18693     18692     18695     18697
     18693     18692     18695     18698     18694     18692     18695     18696
     18694     18692     18695     18697     18694     18692     18695     18698
     18695     18698     18701     18702     18695     18698     18701     18703
     18695     18698     18701     18707     18696     18695     18698     18699
     18696     18695     18698     18700     18696     18695     18698     18701
     18697     18695     18698     18699     18697     18695     18698     18700
     18697     18695     18698     18701     18698     18701     18703     18704
     18698     18701     18703     18705     18698     18701     18703     18706
     18698     18701     18707     18708     18698     18701     18707     18709
     18698     18701     18707     18710     18699     18698     18701     18702
     18699     18698     18701     18703     18699     18698     18701     18707
     18700     18698     18701     18702     18700     18698     18701     18703
     18700     18698     18701     18707     18702     18701     18703     18704
     18702     18701     18703     18705     18702     18701     18703     18706
     18702     18701     18707     18708     18702     18701     18707     18709
     18702     18701     18707     18710     18703     18701     18707     18708
     18703     18701     18707     18709     18703     18701     18707     18710
     18704     18703     18701     18707     18705     18703     18701     18707
     18706     18703     18701     18707     18711     18724     18727     18728
     18711     18724     18727     18729     18711     18724     18727     18734
     18712     18711     18716     18717     18712     18711     18716     18718
     18712     18711     18716     18719     18712     18711     18720     18721
     18712     18711     18720     18722     18712     18711     18720     18723
     18712     18711     18724     18725     18712     18711     18724     18726
     18712     18711     18724     18727     18713     18712     18711     18716
     18713     18712     18711     18720     18713     18712     18711     18724
     18714     18712     18711     18716     18714     18712     18711     18720
     18714     18712     18711     18724     18715     18712     18711     18716
     18715     18712     18711     18720     18715     18712     18711     18724
     18716     18711     18720     18721     18716     18711     18720     18722
     18716     18711     18720     18723     18716     18711     18724     18725
     18716     18711     18724     18726     18716     18711     18724     18727
     18717     18716     18711     18720     18717     18716     18711     18724
     18718     18716     18711     18720     18718     18716     18711     18724
     18719     18716     18711     18720     18719     18716     18711     18724
     18720     18711     18724     18725     18720     18711     18724     18726
     18720     18711     18724     18727     18721     18720     18711     18724
     18722     18720     18711     18724     18723     18720     18711     18724
     18724     18727     18734     18730     18725     18724     18727     18728
     18725     18724     18727     18729     18725     18724     18727     18734
     18726     18724     18727     18728     18726     18724     18727     18729
     18726     18724     18727     18734     18727     18734     18730     18731
     18727     18734     18730     18732     18727     18734     18730     18733
     18728     18727     18734     18730     18729     18727     18734     18730
     18730     18733     18735     18736     18730     18733     18735     18737
     18730     18733     18735     18740     18731     18730     18733     18735
     18732     18730     18733     18735     18733     18735     18740     18738
     18733     18735     18740     18741     18733     18735     18740     18742
     18734     18730     18733     18735     18735     18740     18738     18739
     18735     18740     18738     18790     18735     18740     18742     18743
     18735     18740     18742     18744     18735     18740     18742     18746
     18736     18735     18740     18738     18736     18735     18740     18741
     18736     18735     18740     18742     18737     18735     18740     18738
     18737     18735     18740     18741     18737     18735     18740     18742
     18738     18740     18742     18743     18738     18740     18742     18744
     18738     18740     18742     18746     18738     18790     18792     18793
     18738     18790     18792     18794     18738     18790     18792     18795
     18739     18738     18740     18741     18739     18738     18740     18742
     18739     18738     18790     18791     18739     18738     18790     18792
     18740     18738     18790     18791     18740     18738     18790     18792
     18740     18742     18744     18745     18740     18742     18746     18747
     18740     18742     18746     18748     18741     18740     18738     18790
     18741     18740     18742     18743     18741     18740     18742     18744
     18741     18740     18742     18746     18742     18740     18738     18790
     18742     18746     18748     18749     18742     18746     18748     18750
     18743     18742     18744     18745     18743     18742     18746     18747
     18743     18742     18746     18748     18744     18742     18746     18747
     18744     18742     18746     18748     18745     18744     18742     18746
     18746     18748     18750     18751     18746     18748     18750     18752
     18746     18748     18750     18753     18747     18746     18748     18749
     18747     18746     18748     18750     18748     18750     18753     18754
     18748     18750     18753     18755     18748     18750     18753     18756
     18749     18748     18750     18751     18749     18748     18750     18752
     18749     18748     18750     18753     18750     18753     18756     18757
     18750     18753     18756     18758     18750     18753     18756     18759
     18751     18750     18753     18754     18751     18750     18753     18755
     18751     18750     18753     18756     18752     18750     18753     18754
     18752     18750     18753     18755     18752     18750     18753     18756
     18753     18756     18759     18760     18753     18756     18759     18761
     18753     18756     18759     18762     18754     18753     18756     18757
     18754     18753     18756     18758     18754     18753     18756     18759
     18755     18753     18756     18757     18755     18753     18756     18758
     18755     18753     18756     18759     18756     18759     18762     18763
     18756     18759     18762     18764     18756     18759     18762     18765
     18757     18756     18759     18760     18757     18756     18759     18761
     18757     18756     18759     18762     18758     18756     18759     18760
     18758     18756     18759     18761     18758     18756     18759     18762
     18759     18762     18765     18766     18759     18762     18765     18767
     18759     18762     18765     18768     18760     18759     18762     18763
     18760     18759     18762     18764     18760     18759     18762     18765
     18761     18759     18762     18763     18761     18759     18762     18764
     18761     18759     18762     18765     18762     18765     18768     18769
     18762     18765     18768     18770     18762     18765     18768     18771
     18763     18762     18765     18766     18763     18762     18765     18767
     18763     18762     18765     18768     18764     18762     18765     18766
     18764     18762     18765     18767     18764     18762     18765     18768
     18765     18768     18771     18772     18765     18768     18771     18773
     18765     18768     18771     18774     18766     18765     18768     18769
     18766     18765     18768     18770     18766     18765     18768     18771
     18767     18765     18768     18769     18767     18765     18768     18770
     18767     18765     18768     18771     18768     18771     18774     18775
     18768     18771     18774     18776     18768     18771     18774     18777
     18769     18768     18771     18772     18769     18768     18771     18773
     18769     18768     18771     18774     18770     18768     18771     18772
     18770     18768     18771     18773     18770     18768     18771     18774
     18771     18774     18777     18778     18771     18774     18777     18779
     18771     18774     18777     18780     18772     18771     18774     18775
     18772     18771     18774     18776     18772     18771     18774     18777
     18773     18771     18774     18775     18773     18771     18774     18776
     18773     18771     18774     18777     18774     18777     18780     18781
     18774     18777     18780     18782     18774     18777     18780     18783
     18775     18774     18777     18778     18775     18774     18777     18779
     18775     18774     18777     18780     18776     18774     18777     18778
     18776     18774     18777     18779     18776     18774     18777     18780
     18777     18780     18783     18784     18777     18780     18783     18785
     18777     18780     18783     18786     18778     18777     18780     18781
     18778     18777     18780     18782     18778     18777     18780     18783
     18779     18777     18780     18781     18779     18777     18780     18782
     18779     18777     18780     18783     18780     18783     18786     18787
     18780     18783     18786     18788     18780     18783     18786     18789
     18781     18780     18783     18784     18781     18780     18783     18785
     18781     18780     18783     18786     18782     18780     18783     18784
     18782     18780     18783     18785     18782     18780     18783     18786
     18784     18783     18786     18787     18784     18783     18786     18788
     18784     18783     18786     18789     18785     18783     18786     18787
     18785     18783     18786     18788     18785     18783     18786     18789
     18790     18792     18795     18796     18790     18792     18795     18797
     18790     18792     18795     18798     18791     18790     18792     18793
     18791     18790     18792     18794     18791     18790     18792     18795
     18792     18795     18798     18799     18792     18795     18798     18800
     18792     18795     18798     18801     18793     18792     18795     18796
     18793     18792     18795     18797     18793     18792     18795     18798
     18794     18792     18795     18796     18794     18792     18795     18797
     18794     18792     18795     18798     18795     18798     18801     18802
     18795     18798     18801     18803     18795     18798     18801     18804
     18796     18795     18798     18799     18796     18795     18798     18800
     18796     18795     18798     18801     18797     18795     18798     18799
     18797     18795     18798     18800     18797     18795     18798     18801
     18798     18801     18804     18805     18798     18801     18804     18806
     18798     18801     18804     18807     18799     18798     18801     18802
     18799     18798     18801     18803     18799     18798     18801     18804
     18800     18798     18801     18802     18800     18798     18801     18803
     18800     18798     18801     18804     18801     18804     18807     18808
     18801     18804     18807     18809     18801     18804     18807     18810
     18802     18801     18804     18805     18802     18801     18804     18806
     18802     18801     18804     18807     18803     18801     18804     18805
     18803     18801     18804     18806     18803     18801     18804     18807
     18804     18807     18810     18811     18804     18807     18810     18812
     18804     18807     18810     18813     18805     18804     18807     18808
     18805     18804     18807     18809     18805     18804     18807     18810
     18806     18804     18807     18808     18806     18804     18807     18809
     18806     18804     18807     18810     18807     18810     18813     18814
     18807     18810     18813     18815     18808     18807     18810     18811
     18808     18807     18810     18812     18808     18807     18810     18813
     18809     18807     18810     18811     18809     18807     18810     18812
     18809     18807     18810     18813     18810     18813     18815     18816
     18810     18813     18815     18817     18811     18810     18813     18814
     18811     18810     18813     18815     18812     18810     18813     18814
     18812     18810     18813     18815     18813     18815     18817     18818
     18813     18815     18817     18819     18813     18815     18817     18820
     18814     18813     18815     18816     18814     18813     18815     18817
     18815     18817     18820     18821     18815     18817     18820     18822
     18815     18817     18820     18823     18816     18815     18817     18818
     18816     18815     18817     18819     18816     18815     18817     18820
     18817     18820     18823     18824     18817     18820     18823     18825
     18817     18820     18823     18826     18818     18817     18820     18821
     18818     18817     18820     18822     18818     18817     18820     18823
     18819     18817     18820     18821     18819     18817     18820     18822
     18819     18817     18820     18823     18820     18823     18826     18827
     18820     18823     18826     18828     18820     18823     18826     18829
     18821     18820     18823     18824     18821     18820     18823     18825
     18821     18820     18823     18826     18822     18820     18823     18824
     18822     18820     18823     18825     18822     18820     18823     18826
     18823     18826     18829     18830     18823     18826     18829     18831
     18823     18826     18829     18832     18824     18823     18826     18827
     18824     18823     18826     18828     18824     18823     18826     18829
     18825     18823     18826     18827     18825     18823     18826     18828
     18825     18823     18826     18829     18826     18829     18832     18833
     18826     18829     18832     18834     18826     18829     18832     18835
     18827     18826     18829     18830     18827     18826     18829     18831
     18827     18826     18829     18832     18828     18826     18829     18830
     18828     18826     18829     18831     18828     18826     18829     18832
     18829     18832     18835     18836     18829     18832     18835     18837
     18829     18832     18835     18838     18830     18829     18832     18833
     18830     18829     18832     18834     18830     18829     18832     18835
     18831     18829     18832     18833     18831     18829     18832     18834
     18831     18829     18832     18835     18832     18835     18838     18839
     18832     18835     18838     18840     18832     18835     18838     18841
     18833     18832     18835     18836     18833     18832     18835     18837
     18833     18832     18835     18838     18834     18832     18835     18836
     18834     18832     18835     18837     18834     18832     18835     18838
     18836     18835     18838     18839     18836     18835     18838     18840
     18836     18835     18838     18841     18837     18835     18838     18839
     18837     18835     18838     18840     18837     18835     18838     18841
     18842     18855     18858     18859     18842     18855     18858     18860
     18842     18855     18858     18864     18843     18842     18847     18848
     18843     18842     18847     18849     18843     18842     18847     18850
     18843     18842     18851     18852     18843     18842     18851     18853
     18843     18842     18851     18854     18843     18842     18855     18856
     18843     18842     18855     18857     18843     18842     18855     18858
     18844     18843     18842     18847     18844     18843     18842     18851
     18844     18843     18842     18855     18845     18843     18842     18847
     18845     18843     18842     18851     18845     18843     18842     18855
     18846     18843     18842     18847     18846     18843     18842     18851
     18846     18843     18842     18855     18847     18842     18851     18852
     18847     18842     18851     18853     18847     18842     18851     18854
     18847     18842     18855     18856     18847     18842     18855     18857
     18847     18842     18855     18858     18848     18847     18842     18851
     18848     18847     18842     18855     18849     18847     18842     18851
     18849     18847     18842     18855     18850     18847     18842     18851
     18850     18847     18842     18855     18851     18842     18855     18856
     18851     18842     18855     18857     18851     18842     18855     18858
     18852     18851     18842     18855     18853     18851     18842     18855
     18854     18851     18842     18855     18855     18858     18864     18861
     18856     18855     18858     18859     18856     18855     18858     18860
     18856     18855     18858     18864     18857     18855     18858     18859
     18857     18855     18858     18860     18857     18855     18858     18864
     18858     18864     18861     18862     18858     18864     18861     18863
     18858     18864     18861     18865     18859     18858     18864     18861
     18860     18858     18864     18861     18861     18865     18866     18867
     18861     18865     18866     18868     18861     18865     18866     18869
     18862     18861     18865     18866     18863     18861     18865     18866
     18864     18861     18865     18866     18865     18866     18869     18870
     18865     18866     18869     18871     18865     18866     18869     18877
     18866     18869     18871     18872     18866     18869     18877     18878
     18866     18869     18877     18879     18866     18869     18877     18880
     18867     18866     18869     18870     18867     18866     18869     18871
     18867     18866     18869     18877     18868     18866     18869     18870
     18868     18866     18869     18871     18868     18866     18869     18877
     18869     18871     18872     18873     18869     18871     18872     18874
     18869     18877     18880     18881     18870     18869     18871     18872
     18870     18869     18877     18878     18870     18869     18877     18879
     18870     18869     18877     18880     18871     18869     18877     18878
     18871     18869     18877     18879     18871     18869     18877     18880
     18871     18872     18874     18875     18871     18872     18874     18876
     18871     18872     18874     18886     18872     18871     18869     18877
     18872     18874     18886     18887     18872     18874     18886     18888
     18872     18874     18886     18889     18873     18872     18874     18875
     18873     18872     18874     18876     18873     18872     18874     18886
     18874     18886     18889     18890     18874     18886     18889     18891
     18874     18886     18889     18892     18875     18874     18886     18887
     18875     18874     18886     18888     18875     18874     18886     18889
     18876     18874     18886     18887     18876     18874     18886     18888
     18876     18874     18886     18889     18877     18880     18881     18882
     18877     18880     18881     18883     18878     18877     18880     18881
     18879     18877     18880     18881     18880     18881     18883     18884
     18880     18881     18883     18885     18880     18881     18883     18931
     18881     18883     18931     18932     18881     18883     18931     18933
     18881     18883     18931     18934     18882     18881     18883     18884
     18882     18881     18883     18885     18882     18881     18883     18931
     18883     18931     18934     18935     18883     18931     18934     18936
     18883     18931     18934     18937     18884     18883     18931     18932
     18884     18883     18931     18933     18884     18883     18931     18934
     18885     18883     18931     18932     18885     18883     18931     18933
     18885     18883     18931     18934     18886     18889     18892     18893
     18886     18889     18892     18894     18886     18889     18892     18895
     18887     18886     18889     18890     18887     18886     18889     18891
     18887     18886     18889     18892     18888     18886     18889     18890
     18888     18886     18889     18891     18888     18886     18889     18892
     18889     18892     18895     18896     18889     18892     18895     18897
     18889     18892     18895     18898     18890     18889     18892     18893
     18890     18889     18892     18894     18890     18889     18892     18895
     18891     18889     18892     18893     18891     18889     18892     18894
     18891     18889     18892     18895     18892     18895     18898     18899
     18892     18895     18898     18900     18892     18895     18898     18901
     18893     18892     18895     18896     18893     18892     18895     18897
     18893     18892     18895     18898     18894     18892     18895     18896
     18894     18892     18895     18897     18894     18892     18895     18898
     18895     18898     18901     18902     18895     18898     18901     18903
     18895     18898     18901     18904     18896     18895     18898     18899
     18896     18895     18898     18900     18896     18895     18898     18901
     18897     18895     18898     18899     18897     18895     18898     18900
     18897     18895     18898     18901     18898     18901     18904     18905
     18898     18901     18904     18906     18899     18898     18901     18902
     18899     18898     18901     18903     18899     18898     18901     18904
     18900     18898     18901     18902     18900     18898     18901     18903
     18900     18898     18901     18904     18901     18904     18906     18907
     18901     18904     18906     18908     18902     18901     18904     18905
     18902     18901     18904     18906     18903     18901     18904     18905
     18903     18901     18904     18906     18904     18906     18908     18909
     18904     18906     18908     18910     18904     18906     18908     18911
     18905     18904     18906     18907     18905     18904     18906     18908
     18906     18908     18911     18912     18906     18908     18911     18913
     18907     18906     18908     18909     18907     18906     18908     18910
     18907     18906     18908     18911     18908     18911     18913     18914
     18908     18911     18913     18915     18909     18908     18911     18912
     18909     18908     18911     18913     18910     18908     18911     18912
     18910     18908     18911     18913     18911     18913     18915     18916
     18911     18913     18915     18917     18911     18913     18915     18918
     18912     18911     18913     18914     18912     18911     18913     18915
     18913     18915     18918     18919     18913     18915     18918     18920
     18913     18915     18918     18921     18914     18913     18915     18916
     18914     18913     18915     18917     18914     18913     18915     18918
     18915     18918     18921     18922     18915     18918     18921     18923
     18915     18918     18921     18924     18916     18915     18918     18919
     18916     18915     18918     18920     18916     18915     18918     18921
     18917     18915     18918     18919     18917     18915     18918     18920
     18917     18915     18918     18921     18918     18921     18924     18925
     18918     18921     18924     18926     18918     18921     18924     18927
     18919     18918     18921     18922     18919     18918     18921     18923
     18919     18918     18921     18924     18920     18918     18921     18922
     18920     18918     18921     18923     18920     18918     18921     18924
     18921     18924     18927     18928     18921     18924     18927     18929
     18921     18924     18927     18930     18922     18921     18924     18925
     18922     18921     18924     18926     18922     18921     18924     18927
     18923     18921     18924     18925     18923     18921     18924     18926
     18923     18921     18924     18927     18925     18924     18927     18928
     18925     18924     18927     18929     18925     18924     18927     18930
     18926     18924     18927     18928     18926     18924     18927     18929
     18926     18924     18927     18930     18931     18934     18937     18938
     18931     18934     18937     18939     18931     18934     18937     18940
     18932     18931     18934     18935     18932     18931     18934     18936
     18932     18931     18934     18937     18933     18931     18934     18935
     18933     18931     18934     18936     18933     18931     18934     18937
     18934     18937     18940     18941     18934     18937     18940     18942
     18934     18937     18940     18943     18935     18934     18937     18938
     18935     18934     18937     18939     18935     18934     18937     18940
     18936     18934     18937     18938     18936     18934     18937     18939
     18936     18934     18937     18940     18937     18940     18943     18944
     18937     18940     18943     18945     18937     18940     18943     18946
     18938     18937     18940     18941     18938     18937     18940     18942
     18938     18937     18940     18943     18939     18937     18940     18941
     18939     18937     18940     18942     18939     18937     18940     18943
     18940     18943     18946     18947     18940     18943     18946     18948
     18940     18943     18946     18949     18941     18940     18943     18944
     18941     18940     18943     18945     18941     18940     18943     18946
     18942     18940     18943     18944     18942     18940     18943     18945
     18942     18940     18943     18946     18943     18946     18949     18950
     18943     18946     18949     18951     18943     18946     18949     18952
     18944     18943     18946     18947     18944     18943     18946     18948
     18944     18943     18946     18949     18945     18943     18946     18947
     18945     18943     18946     18948     18945     18943     18946     18949
     18946     18949     18952     18953     18946     18949     18952     18954
     18946     18949     18952     18955     18947     18946     18949     18950
     18947     18946     18949     18951     18947     18946     18949     18952
     18948     18946     18949     18950     18948     18946     18949     18951
     18948     18946     18949     18952     18949     18952     18955     18956
     18949     18952     18955     18957     18949     18952     18955     18958
     18950     18949     18952     18953     18950     18949     18952     18954
     18950     18949     18952     18955     18951     18949     18952     18953
     18951     18949     18952     18954     18951     18949     18952     18955
     18952     18955     18958     18959     18952     18955     18958     18960
     18952     18955     18958     18961     18953     18952     18955     18956
     18953     18952     18955     18957     18953     18952     18955     18958
     18954     18952     18955     18956     18954     18952     18955     18957
     18954     18952     18955     18958     18955     18958     18961     18962
     18955     18958     18961     18963     18955     18958     18961     18964
     18956     18955     18958     18959     18956     18955     18958     18960
     18956     18955     18958     18961     18957     18955     18958     18959
     18957     18955     18958     18960     18957     18955     18958     18961
     18958     18961     18964     18965     18958     18961     18964     18966
     18958     18961     18964     18967     18959     18958     18961     18962
     18959     18958     18961     18963     18959     18958     18961     18964
     18960     18958     18961     18962     18960     18958     18961     18963
     18960     18958     18961     18964     18961     18964     18967     18968
     18961     18964     18967     18969     18961     18964     18967     18970
     18962     18961     18964     18965     18962     18961     18964     18966
     18962     18961     18964     18967     18963     18961     18964     18965
     18963     18961     18964     18966     18963     18961     18964     18967
     18964     18967     18970     18971     18964     18967     18970     18972
     18964     18967     18970     18973     18965     18964     18967     18968
     18965     18964     18967     18969     18965     18964     18967     18970
     18966     18964     18967     18968     18966     18964     18967     18969
     18966     18964     18967     18970     18967     18970     18973     18974
     18967     18970     18973     18975     18967     18970     18973     18976
     18968     18967     18970     18971     18968     18967     18970     18972
     18968     18967     18970     18973     18969     18967     18970     18971
     18969     18967     18970     18972     18969     18967     18970     18973
     18970     18973     18976     18977     18970     18973     18976     18978
     18970     18973     18976     18979     18971     18970     18973     18974
     18971     18970     18973     18975     18971     18970     18973     18976
     18972     18970     18973     18974     18972     18970     18973     18975
     18972     18970     18973     18976     18974     18973     18976     18977
     18974     18973     18976     18978     18974     18973     18976     18979
     18975     18973     18976     18977     18975     18973     18976     18978
     18975     18973     18976     18979     18980     18981     18996     18997
     18980     18981     18996     18998     18980     18981     18996     19002
     18981     18980     18984     18985     18981     18980     18984     18986
     18981     18980     18984     18987     18981     18980     18988     18989
     18981     18980     18988     18990     18981     18980     18988     18991
     18981     18980     18992     18993     18981     18980     18992     18994
     18981     18980     18992     18995     18981     18996     19002     18999
     18982     18981     18980     18984     18982     18981     18980     18988
     18982     18981     18980     18992     18982     18981     18996     18997
     18982     18981     18996     18998     18982     18981     18996     19002
     18983     18981     18980     18984     18983     18981     18980     18988
     18983     18981     18980     18992     18983     18981     18996     18997
     18983     18981     18996     18998     18983     18981     18996     19002
     18984     18980     18981     18996     18984     18980     18988     18989
     18984     18980     18988     18990     18984     18980     18988     18991
     18984     18980     18992     18993     18984     18980     18992     18994
     18984     18980     18992     18995     18985     18984     18980     18988
     18985     18984     18980     18992     18986     18984     18980     18988
     18986     18984     18980     18992     18987     18984     18980     18988
     18987     18984     18980     18992     18988     18980     18981     18996
     18988     18980     18992     18993     18988     18980     18992     18994
     18988     18980     18992     18995     18989     18988     18980     18992
     18990     18988     18980     18992     18991     18988     18980     18992
     18992     18980     18981     18996     18996     19002     18999     19000
     18996     19002     18999     19001     18996     19002     18999     19003
     18997     18996     19002     18999     18998     18996     19002     18999
     18999     19003     19004     19005     18999     19003     19004     19006
     18999     19003     19004     19007     19000     18999     19003     19004
     19001     18999     19003     19004     19002     18999     19003     19004
     19003     19004     19007     19008     19003     19004     19007     19009
     19003     19004     19007     19015     19004     19007     19009     19010
     19004     19007     19015     19016     19004     19007     19015     19017
     19004     19007     19015     19018     19005     19004     19007     19008
     19005     19004     19007     19009     19005     19004     19007     19015
     19006     19004     19007     19008     19006     19004     19007     19009
     19006     19004     19007     19015     19007     19009     19010     19011
     19007     19009     19010     19012     19007     19015     19018     19019
     19008     19007     19009     19010     19008     19007     19015     19016
     19008     19007     19015     19017     19008     19007     19015     19018
     19009     19007     19015     19016     19009     19007     19015     19017
     19009     19007     19015     19018     19009     19010     19012     19013
     19009     19010     19012     19014     19009     19010     19012     19024
     19010     19009     19007     19015     19010     19012     19024     19025
     19010     19012     19024     19026     19010     19012     19024     19027
     19011     19010     19012     19013     19011     19010     19012     19014
     19011     19010     19012     19024     19012     19024     19027     19028
     19012     19024     19027     19029     19012     19024     19027     19030
     19013     19012     19024     19025     19013     19012     19024     19026
     19013     19012     19024     19027     19014     19012     19024     19025
     19014     19012     19024     19026     19014     19012     19024     19027
     19015     19018     19019     19020     19015     19018     19019     19021
     19016     19015     19018     19019     19017     19015     19018     19019
     19018     19019     19021     19022     19018     19019     19021     19023
     19018     19019     19021     19071     19019     19021     19071     19072
     19019     19021     19071     19073     19019     19021     19071     19074
     19020     19019     19021     19022     19020     19019     19021     19023
     19020     19019     19021     19071     19021     19071     19074     19075
     19021     19071     19074     19076     19021     19071     19074     19077
     19022     19021     19071     19072     19022     19021     19071     19073
     19022     19021     19071     19074     19023     19021     19071     19072
     19023     19021     19071     19073     19023     19021     19071     19074
     19024     19027     19030     19031     19024     19027     19030     19032
     19025     19024     19027     19028     19025     19024     19027     19029
     19025     19024     19027     19030     19026     19024     19027     19028
     19026     19024     19027     19029     19026     19024     19027     19030
     19027     19030     19032     19033     19027     19030     19032     19034
     19028     19027     19030     19031     19028     19027     19030     19032
     19029     19027     19030     19031     19029     19027     19030     19032
     19030     19032     19034     19035     19030     19032     19034     19036
     19030     19032     19034     19037     19031     19030     19032     19033
     19031     19030     19032     19034     19032     19034     19037     19038
     19032     19034     19037     19039     19033     19032     19034     19035
     19033     19032     19034     19036     19033     19032     19034     19037
     19034     19037     19039     19040     19034     19037     19039     19041
     19035     19034     19037     19038     19035     19034     19037     19039
     19036     19034     19037     19038     19036     19034     19037     19039
     19037     19039     19041     19042     19037     19039     19041     19043
     19037     19039     19041     19044     19038     19037     19039     19040
     19038     19037     19039     19041     19039     19041     19044     19045
     19039     19041     19044     19046     19040     19039     19041     19042
     19040     19039     19041     19043     19040     19039     19041     19044
     19041     19044     19046     19047     19041     19044     19046     19048
     19042     19041     19044     19045     19042     19041     19044     19046
     19043     19041     19044     19045     19043     19041     19044     19046
     19044     19046     19048     19049     19044     19046     19048     19050
     19044     19046     19048     19051     19045     19044     19046     19047
     19045     19044     19046     19048     19046     19048     19051     19052
     19046     19048     19051     19053     19047     19046     19048     19049
     19047     19046     19048     19050     19047     19046     19048     19051
     19048     19051     19053     19054     19048     19051     19053     19055
     19049     19048     19051     19052     19049     19048     19051     19053
     19050     19048     19051     19052     19050     19048     19051     19053
     19051     19053     19055     19056     19051     19053     19055     19057
     19051     19053     19055     19058     19052     19051     19053     19054
     19052     19051     19053     19055     19053     19055     19058     19059
     19053     19055     19058     19060     19053     19055     19058     19061
     19054     19053     19055     19056     19054     19053     19055     19057
     19054     19053     19055     19058     19055     19058     19061     19062
     19055     19058     19061     19063     19055     19058     19061     19064
     19056     19055     19058     19059     19056     19055     19058     19060
     19056     19055     19058     19061     19057     19055     19058     19059
     19057     19055     19058     19060     19057     19055     19058     19061
     19058     19061     19064     19065     19058     19061     19064     19066
     19058     19061     19064     19067     19059     19058     19061     19062
     19059     19058     19061     19063     19059     19058     19061     19064
     19060     19058     19061     19062     19060     19058     19061     19063
     19060     19058     19061     19064     19061     19064     19067     19068
     19061     19064     19067     19069     19061     19064     19067     19070
     19062     19061     19064     19065     19062     19061     19064     19066
     19062     19061     19064     19067     19063     19061     19064     19065
     19063     19061     19064     19066     19063     19061     19064     19067
     19065     19064     19067     19068     19065     19064     19067     19069
     19065     19064     19067     19070     19066     19064     19067     19068
     19066     19064     19067     19069     19066     19064     19067     19070
     19071     19074     19077     19078     19071     19074     19077     19079
     19071     19074     19077     19080     19072     19071     19074     19075
     19072     19071     19074     19076     19072     19071     19074     19077
     19073     19071     19074     19075     19073     19071     19074     19076
     19073     19071     19074     19077     19074     19077     19080     19081
     19074     19077     19080     19082     19074     19077     19080     19083
     19075     19074     19077     19078     19075     19074     19077     19079
     19075     19074     19077     19080     19076     19074     19077     19078
     19076     19074     19077     19079     19076     19074     19077     19080
     19077     19080     19083     19084     19077     19080     19083     19085
     19077     19080     19083     19086     19078     19077     19080     19081
     19078     19077     19080     19082     19078     19077     19080     19083
     19079     19077     19080     19081     19079     19077     19080     19082
     19079     19077     19080     19083     19080     19083     19086     19087
     19080     19083     19086     19088     19080     19083     19086     19089
     19081     19080     19083     19084     19081     19080     19083     19085
     19081     19080     19083     19086     19082     19080     19083     19084
     19082     19080     19083     19085     19082     19080     19083     19086
     19083     19086     19089     19090     19083     19086     19089     19091
     19083     19086     19089     19092     19084     19083     19086     19087
     19084     19083     19086     19088     19084     19083     19086     19089
     19085     19083     19086     19087     19085     19083     19086     19088
     19085     19083     19086     19089     19086     19089     19092     19093
     19086     19089     19092     19094     19086     19089     19092     19095
     19087     19086     19089     19090     19087     19086     19089     19091
     19087     19086     19089     19092     19088     19086     19089     19090
     19088     19086     19089     19091     19088     19086     19089     19092
     19089     19092     19095     19096     19089     19092     19095     19097
     19089     19092     19095     19098     19090     19089     19092     19093
     19090     19089     19092     19094     19090     19089     19092     19095
     19091     19089     19092     19093     19091     19089     19092     19094
     19091     19089     19092     19095     19092     19095     19098     19099
     19092     19095     19098     19100     19092     19095     19098     19101
     19093     19092     19095     19096     19093     19092     19095     19097
     19093     19092     19095     19098     19094     19092     19095     19096
     19094     19092     19095     19097     19094     19092     19095     19098
     19095     19098     19101     19102     19095     19098     19101     19103
     19095     19098     19101     19104     19096     19095     19098     19099
     19096     19095     19098     19100     19096     19095     19098     19101
     19097     19095     19098     19099     19097     19095     19098     19100
     19097     19095     19098     19101     19098     19101     19104     19105
     19098     19101     19104     19106     19098     19101     19104     19107
     19099     19098     19101     19102     19099     19098     19101     19103
     19099     19098     19101     19104     19100     19098     19101     19102
     19100     19098     19101     19103     19100     19098     19101     19104
     19101     19104     19107     19108     19101     19104     19107     19109
     19101     19104     19107     19110     19102     19101     19104     19105
     19102     19101     19104     19106     19102     19101     19104     19107
     19103     19101     19104     19105     19103     19101     19104     19106
     19103     19101     19104     19107     19104     19107     19110     19111
     19104     19107     19110     19112     19104     19107     19110     19113
     19105     19104     19107     19108     19105     19104     19107     19109
     19105     19104     19107     19110     19106     19104     19107     19108
     19106     19104     19107     19109     19106     19104     19107     19110
     19107     19110     19113     19114     19107     19110     19113     19115
     19107     19110     19113     19116     19108     19107     19110     19111
     19108     19107     19110     19112     19108     19107     19110     19113
     19109     19107     19110     19111     19109     19107     19110     19112
     19109     19107     19110     19113     19110     19113     19116     19117
     19110     19113     19116     19118     19110     19113     19116     19119
     19111     19110     19113     19114     19111     19110     19113     19115
     19111     19110     19113     19116     19112     19110     19113     19114
     19112     19110     19113     19115     19112     19110     19113     19116
     19114     19113     19116     19117     19114     19113     19116     19118
     19114     19113     19116     19119     19115     19113     19116     19117
     19115     19113     19116     19118     19115     19113     19116     19119
     19120     19124     19126     19127     19120     19124     19126     19128
     19120     19124     19129     19130     19120     19124     19129     19131
     19120     19124     19129     19135     19121     19120     19124     19125
     19121     19120     19124     19126     19121     19120     19124     19129
     19122     19120     19124     19125     19122     19120     19124     19126
     19122     19120     19124     19129     19123     19120     19124     19125
     19123     19120     19124     19126     19123     19120     19124     19129
     19124     19129     19135     19132     19125     19124     19126     19127
     19125     19124     19126     19128     19125     19124     19129     19130
     19125     19124     19129     19131     19125     19124     19129     19135
     19126     19124     19129     19130     19126     19124     19129     19131
     19126     19124     19129     19135     19127     19126     19124     19129
     19128     19126     19124     19129     19129     19135     19132     19133
     19129     19135     19132     19134     19129     19135     19132     19136
     19130     19129     19135     19132     19131     19129     19135     19132
     19132     19136     19137     19138     19132     19136     19137     19139
     19132     19136     19137     19140     19133     19132     19136     19137
     19134     19132     19136     19137     19135     19132     19136     19137
     19136     19137     19140     19141     19136     19137     19140     19142
     19136     19137     19140     19148     19137     19140     19142     19143
     19137     19140     19148     19149     19137     19140     19148     19150
     19137     19140     19148     19151     19138     19137     19140     19141
     19138     19137     19140     19142     19138     19137     19140     19148
     19139     19137     19140     19141     19139     19137     19140     19142
     19139     19137     19140     19148     19140     19142     19143     19144
     19140     19142     19143     19145     19140     19148     19151     19152
     19141     19140     19142     19143     19141     19140     19148     19149
     19141     19140     19148     19150     19141     19140     19148     19151
     19142     19140     19148     19149     19142     19140     19148     19150
     19142     19140     19148     19151     19142     19143     19145     19146
     19142     19143     19145     19147     19142     19143     19145     19157
     19143     19142     19140     19148     19143     19145     19157     19158
     19143     19145     19157     19159     19143     19145     19157     19160
     19144     19143     19145     19146     19144     19143     19145     19147
     19144     19143     19145     19157     19145     19157     19160     19161
     19145     19157     19160     19162     19145     19157     19160     19163
     19146     19145     19157     19158     19146     19145     19157     19159
     19146     19145     19157     19160     19147     19145     19157     19158
     19147     19145     19157     19159     19147     19145     19157     19160
     19148     19151     19152     19153     19148     19151     19152     19154
     19149     19148     19151     19152     19150     19148     19151     19152
     19151     19152     19154     19155     19151     19152     19154     19156
     19151     19152     19154     19204     19152     19154     19204     19205
     19152     19154     19204     19206     19152     19154     19204     19207
     19153     19152     19154     19155     19153     19152     19154     19156
     19153     19152     19154     19204     19154     19204     19207     19208
     19154     19204     19207     19209     19154     19204     19207     19210
     19155     19154     19204     19205     19155     19154     19204     19206
     19155     19154     19204     19207     19156     19154     19204     19205
     19156     19154     19204     19206     19156     19154     19204     19207
     19157     19160     19163     19164     19157     19160     19163     19165
     19158     19157     19160     19161     19158     19157     19160     19162
     19158     19157     19160     19163     19159     19157     19160     19161
     19159     19157     19160     19162     19159     19157     19160     19163
     19160     19163     19165     19166     19160     19163     19165     19167
     19161     19160     19163     19164     19161     19160     19163     19165
     19162     19160     19163     19164     19162     19160     19163     19165
     19163     19165     19167     19168     19163     19165     19167     19169
     19163     19165     19167     19170     19164     19163     19165     19166
     19164     19163     19165     19167     19165     19167     19170     19171
     19165     19167     19170     19172     19166     19165     19167     19168
     19166     19165     19167     19169     19166     19165     19167     19170
     19167     19170     19172     19173     19167     19170     19172     19174
     19168     19167     19170     19171     19168     19167     19170     19172
     19169     19167     19170     19171     19169     19167     19170     19172
     19170     19172     19174     19175     19170     19172     19174     19176
     19170     19172     19174     19177     19171     19170     19172     19173
     19171     19170     19172     19174     19172     19174     19177     19178
     19172     19174     19177     19179     19173     19172     19174     19175
     19173     19172     19174     19176     19173     19172     19174     19177
     19174     19177     19179     19180     19174     19177     19179     19181
     19175     19174     19177     19178     19175     19174     19177     19179
     19176     19174     19177     19178     19176     19174     19177     19179
     19177     19179     19181     19182     19177     19179     19181     19183
     19177     19179     19181     19184     19178     19177     19179     19180
     19178     19177     19179     19181     19179     19181     19184     19185
     19179     19181     19184     19186     19180     19179     19181     19182
     19180     19179     19181     19183     19180     19179     19181     19184
     19181     19184     19186     19187     19181     19184     19186     19188
     19182     19181     19184     19185     19182     19181     19184     19186
     19183     19181     19184     19185     19183     19181     19184     19186
     19184     19186     19188     19189     19184     19186     19188     19190
     19184     19186     19188     19191     19185     19184     19186     19187
     19185     19184     19186     19188     19186     19188     19191     19192
     19186     19188     19191     19193     19186     19188     19191     19194
     19187     19186     19188     19189     19187     19186     19188     19190
     19187     19186     19188     19191     19188     19191     19194     19195
     19188     19191     19194     19196     19188     19191     19194     19197
     19189     19188     19191     19192     19189     19188     19191     19193
     19189     19188     19191     19194     19190     19188     19191     19192
     19190     19188     19191     19193     19190     19188     19191     19194
     19191     19194     19197     19198     19191     19194     19197     19199
     19191     19194     19197     19200     19192     19191     19194     19195
     19192     19191     19194     19196     19192     19191     19194     19197
     19193     19191     19194     19195     19193     19191     19194     19196
     19193     19191     19194     19197     19194     19197     19200     19201
     19194     19197     19200     19202     19194     19197     19200     19203
     19195     19194     19197     19198     19195     19194     19197     19199
     19195     19194     19197     19200     19196     19194     19197     19198
     19196     19194     19197     19199     19196     19194     19197     19200
     19198     19197     19200     19201     19198     19197     19200     19202
     19198     19197     19200     19203     19199     19197     19200     19201
     19199     19197     19200     19202     19199     19197     19200     19203
     19204     19207     19210     19211     19204     19207     19210     19212
     19204     19207     19210     19213     19205     19204     19207     19208
     19205     19204     19207     19209     19205     19204     19207     19210
     19206     19204     19207     19208     19206     19204     19207     19209
     19206     19204     19207     19210     19207     19210     19213     19214
     19207     19210     19213     19215     19207     19210     19213     19216
     19208     19207     19210     19211     19208     19207     19210     19212
     19208     19207     19210     19213     19209     19207     19210     19211
     19209     19207     19210     19212     19209     19207     19210     19213
     19210     19213     19216     19217     19210     19213     19216     19218
     19210     19213     19216     19219     19211     19210     19213     19214
     19211     19210     19213     19215     19211     19210     19213     19216
     19212     19210     19213     19214     19212     19210     19213     19215
     19212     19210     19213     19216     19213     19216     19219     19220
     19213     19216     19219     19221     19213     19216     19219     19222
     19214     19213     19216     19217     19214     19213     19216     19218
     19214     19213     19216     19219     19215     19213     19216     19217
     19215     19213     19216     19218     19215     19213     19216     19219
     19216     19219     19222     19223     19216     19219     19222     19224
     19216     19219     19222     19225     19217     19216     19219     19220
     19217     19216     19219     19221     19217     19216     19219     19222
     19218     19216     19219     19220     19218     19216     19219     19221
     19218     19216     19219     19222     19219     19222     19225     19226
     19219     19222     19225     19227     19219     19222     19225     19228
     19220     19219     19222     19223     19220     19219     19222     19224
     19220     19219     19222     19225     19221     19219     19222     19223
     19221     19219     19222     19224     19221     19219     19222     19225
     19222     19225     19228     19229     19222     19225     19228     19230
     19222     19225     19228     19231     19223     19222     19225     19226
     19223     19222     19225     19227     19223     19222     19225     19228
     19224     19222     19225     19226     19224     19222     19225     19227
     19224     19222     19225     19228     19225     19228     19231     19232
     19225     19228     19231     19233     19225     19228     19231     19234
     19226     19225     19228     19229     19226     19225     19228     19230
     19226     19225     19228     19231     19227     19225     19228     19229
     19227     19225     19228     19230     19227     19225     19228     19231
     19228     19231     19234     19235     19228     19231     19234     19236
     19228     19231     19234     19237     19229     19228     19231     19232
     19229     19228     19231     19233     19229     19228     19231     19234
     19230     19228     19231     19232     19230     19228     19231     19233
     19230     19228     19231     19234     19231     19234     19237     19238
     19231     19234     19237     19239     19231     19234     19237     19240
     19232     19231     19234     19235     19232     19231     19234     19236
     19232     19231     19234     19237     19233     19231     19234     19235
     19233     19231     19234     19236     19233     19231     19234     19237
     19234     19237     19240     19241     19234     19237     19240     19242
     19234     19237     19240     19243     19235     19234     19237     19238
     19235     19234     19237     19239     19235     19234     19237     19240
     19236     19234     19237     19238     19236     19234     19237     19239
     19236     19234     19237     19240     19237     19240     19243     19244
     19237     19240     19243     19245     19237     19240     19243     19246
     19238     19237     19240     19241     19238     19237     19240     19242
     19238     19237     19240     19243     19239     19237     19240     19241
     19239     19237     19240     19242     19239     19237     19240     19243
     19240     19243     19246     19247     19240     19243     19246     19248
     19240     19243     19246     19249     19241     19240     19243     19244
     19241     19240     19243     19245     19241     19240     19243     19246
     19242     19240     19243     19244     19242     19240     19243     19245
     19242     19240     19243     19246     19243     19246     19249     19250
     19243     19246     19249     19251     19243     19246     19249     19252
     19244     19243     19246     19247     19244     19243     19246     19248
     19244     19243     19246     19249     19245     19243     19246     19247
     19245     19243     19246     19248     19245     19243     19246     19249
     19247     19246     19249     19250     19247     19246     19249     19251
     19247     19246     19249     19252     19248     19246     19249     19250
     19248     19246     19249     19251     19248     19246     19249     19252
     19253     19257     19260     19261     19253     19257     19260     19291
     19253     19299     19296     19291     19253     19299     19296     19297
     19253     19299     19296     19298     19254     19253     19255     19256
     19254     19253     19257     19258     19254     19253     19257     19259
     19254     19253     19257     19260     19254     19253     19299     19296
     19254     19253     19299     19300     19254     19253     19299     19301
     19255     19253     19257     19258     19255     19253     19257     19259
     19255     19253     19257     19260     19255     19253     19299     19296
     19255     19253     19299     19300     19255     19253     19299     19301
     19256     19255     19253     19257     19256     19255     19253     19299
     19257     19253     19299     19296     19257     19253     19299     19300
     19257     19253     19299     19301     19257     19260     19261     19262
     19257     19260     19261     19263     19257     19260     19291     19289
     19257     19260     19291     19292     19257     19260     19291     19296
     19258     19257     19253     19299     19258     19257     19260     19261
     19258     19257     19260     19291     19259     19257     19253     19299
     19259     19257     19260     19261     19259     19257     19260     19291
     19260     19257     19253     19299     19260     19261     19263     19264
     19260     19261     19263     19265     19260     19261     19263     19266
     19260     19291     19289     19266     19260     19291     19289     19286
     19260     19291     19289     19290     19260     19291     19292     19293
     19260     19291     19292     19294     19260     19291     19292     19295
     19260     19291     19296     19297     19260     19291     19296     19298
     19260     19291     19296     19299     19261     19260     19291     19289
     19261     19260     19291     19292     19261     19260     19291     19296
     19261     19263     19266     19267     19261     19263     19266     19268
     19261     19263     19266     19289     19262     19261     19260     19291
     19262     19261     19263     19264     19262     19261     19263     19265
     19262     19261     19263     19266     19263     19261     19260     19291
     19263     19266     19268     19269     19263     19266     19268     19270
     19263     19266     19268     19278     19263     19266     19289     19286
     19263     19266     19289     19290     19263     19266     19289     19291
     19264     19263     19266     19267     19264     19263     19266     19268
     19264     19263     19266     19289     19265     19263     19266     19267
     19265     19263     19266     19268     19265     19263     19266     19289
     19266     19268     19270     19271     19266     19268     19270     19272
     19266     19268     19270     19273     19266     19268     19278     19276
     19266     19268     19278     19279     19266     19268     19278     19283
     19266     19289     19286     19283     19266     19289     19286     19287
     19266     19289     19286     19288     19266     19289     19291     19292
     19266     19289     19291     19296     19267     19266     19268     19269
     19267     19266     19268     19270     19267     19266     19268     19278
     19267     19266     19289     19286     19267     19266     19289     19290
     19267     19266     19289     19291     19268     19266     19289     19286
     19268     19266     19289     19290     19268     19266     19289     19291
     19268     19270     19273     19274     19268     19270     19273     19275
     19268     19270     19273     19276     19268     19278     19276     19273
     19268     19278     19276     19277     19268     19278     19276     19302
     19268     19278     19279     19280     19268     19278     19279     19281
     19268     19278     19279     19282     19268     19278     19283     19284
     19268     19278     19283     19285     19268     19278     19283     19286
     19269     19268     19266     19289     19269     19268     19270     19271
     19269     19268     19270     19272     19269     19268     19270     19273
     19269     19268     19278     19276     19269     19268     19278     19279
     19269     19268     19278     19283     19270     19268     19266     19289
     19270     19268     19278     19276     19270     19268     19278     19279
     19270     19268     19278     19283     19270     19273     19276     19277
     19270     19273     19276     19278     19270     19273     19276     19302
     19271     19270     19268     19278     19271     19270     19273     19274
     19271     19270     19273     19275     19271     19270     19273     19276
     19272     19270     19268     19278     19272     19270     19273     19274
     19272     19270     19273     19275     19272     19270     19273     19276
     19273     19270     19268     19278     19273     19276     19278     19279
     19273     19276     19278     19283     19273     19276     19302     19303
     19273     19276     19302     19304     19273     19276     19302     19308
     19274     19273     19276     19277     19274     19273     19276     19278
     19274     19273     19276     19302     19275     19273     19276     19277
     19275     19273     19276     19278     19275     19273     19276     19302
     19276     19278     19279     19280     19276     19278     19279     19281
     19276     19278     19279     19282     19276     19278     19283     19284
     19276     19278     19283     19285     19276     19278     19283     19286
     19276     19302     19304     19305     19276     19302     19304     19306
     19276     19302     19304     19307     19276     19302     19308     19309
     19276     19302     19308     19310     19276     19302     19308     19311
     19277     19276     19278     19279     19277     19276     19278     19283
     19277     19276     19302     19303     19277     19276     19302     19304
     19277     19276     19302     19308     19278     19268     19266     19289
     19278     19276     19302     19303     19278     19276     19302     19304
     19278     19276     19302     19308     19278     19283     19286     19287
     19278     19283     19286     19288     19278     19283     19286     19289
     19279     19278     19276     19302     19279     19278     19283     19284
     19279     19278     19283     19285     19279     19278     19283     19286
     19280     19279     19278     19283     19281     19279     19278     19283
     19282     19279     19278     19283     19283     19278     19276     19302
     19283     19286     19289     19290     19283     19286     19289     19291
     19284     19283     19286     19287     19284     19283     19286     19288
     19284     19283     19286     19289     19285     19283     19286     19287
     19285     19283     19286     19288     19285     19283     19286     19289
     19286     19289     19291     19292     19286     19289     19291     19296
     19287     19286     19289     19290     19287     19286     19289     19291
     19288     19286     19289     19290     19288     19286     19289     19291
     19289     19291     19292     19293     19289     19291     19292     19294
     19289     19291     19292     19295     19289     19291     19296     19297
     19289     19291     19296     19298     19289     19291     19296     19299
     19290     19289     19291     19292     19290     19289     19291     19296
     19291     19296     19299     19300     19291     19296     19299     19301
     19292     19291     19296     19297     19292     19291     19296     19298
     19292     19291     19296     19299     19293     19292     19291     19296
     19294     19292     19291     19296     19295     19292     19291     19296
     19297     19296     19299     19300     19297     19296     19299     19301
     19298     19296     19299     19300     19298     19296     19299     19301
     19302     19308     19311     19312     19302     19308     19311     19313
     19302     19308     19311     19314     19303     19302     19304     19305
     19303     19302     19304     19306     19303     19302     19304     19307
     19303     19302     19308     19309     19303     19302     19308     19310
     19303     19302     19308     19311     19304     19302     19308     19309
     19304     19302     19308     19310     19304     19302     19308     19311
     19305     19304     19302     19308     19306     19304     19302     19308
     19307     19304     19302     19308     19308     19311     19314     19315
     19308     19311     19314     19316     19308     19311     19314     19317
     19309     19308     19311     19312     19309     19308     19311     19313
     19309     19308     19311     19314     19310     19308     19311     19312
     19310     19308     19311     19313     19310     19308     19311     19314
     19311     19314     19317     19318     19311     19314     19317     19319
     19311     19314     19317     19323     19312     19311     19314     19315
     19312     19311     19314     19316     19312     19311     19314     19317
     19313     19311     19314     19315     19313     19311     19314     19316
     19313     19311     19314     19317     19314     19317     19319     19320
     19314     19317     19319     19321     19314     19317     19319     19322
     19314     19317     19323     19324     19314     19317     19323     19325
     19314     19317     19323     19326     19315     19314     19317     19318
     19315     19314     19317     19319     19315     19314     19317     19323
     19316     19314     19317     19318     19316     19314     19317     19319
     19316     19314     19317     19323     19318     19317     19319     19320
     19318     19317     19319     19321     19318     19317     19319     19322
     19318     19317     19323     19324     19318     19317     19323     19325
     19318     19317     19323     19326     19319     19317     19323     19324
     19319     19317     19323     19325     19319     19317     19323     19326
     19320     19319     19317     19323     19321     19319     19317     19323
     19322     19319     19317     19323     19327     19331     19334     19335
     19327     19331     19334     19336     19327     19331     19334     19340
     19328     19327     19331     19332     19328     19327     19331     19333
     19328     19327     19331     19334     19329     19327     19331     19332
     19329     19327     19331     19333     19329     19327     19331     19334
     19330     19327     19331     19332     19330     19327     19331     19333
     19330     19327     19331     19334     19331     19334     19340     19337
     19332     19331     19334     19335     19332     19331     19334     19336
     19332     19331     19334     19340     19333     19331     19334     19335
     19333     19331     19334     19336     19333     19331     19334     19340
     19334     19340     19337     19338     19334     19340     19337     19339
     19334     19340     19337     19341     19335     19334     19340     19337
     19336     19334     19340     19337     19337     19341     19342     19343
     19337     19341     19342     19344     19337     19341     19342     19345
     19338     19337     19341     19342     19339     19337     19341     19342
     19340     19337     19341     19342     19341     19342     19345     19346
     19341     19342     19345     19347     19341     19342     19345     19353
     19342     19345     19347     19348     19342     19345     19353     19354
     19342     19345     19353     19355     19342     19345     19353     19356
     19343     19342     19345     19346     19343     19342     19345     19347
     19343     19342     19345     19353     19344     19342     19345     19346
     19344     19342     19345     19347     19344     19342     19345     19353
     19345     19347     19348     19349     19345     19347     19348     19350
     19345     19353     19356     19357     19346     19345     19347     19348
     19346     19345     19353     19354     19346     19345     19353     19355
     19346     19345     19353     19356     19347     19345     19353     19354
     19347     19345     19353     19355     19347     19345     19353     19356
     19347     19348     19350     19351     19347     19348     19350     19352
     19347     19348     19350     19362     19348     19347     19345     19353
     19348     19350     19362     19363     19348     19350     19362     19364
     19348     19350     19362     19365     19349     19348     19350     19351
     19349     19348     19350     19352     19349     19348     19350     19362
     19350     19362     19365     19366     19350     19362     19365     19367
     19350     19362     19365     19368     19351     19350     19362     19363
     19351     19350     19362     19364     19351     19350     19362     19365
     19352     19350     19362     19363     19352     19350     19362     19364
     19352     19350     19362     19365     19353     19356     19357     19358
     19353     19356     19357     19359     19354     19353     19356     19357
     19355     19353     19356     19357     19356     19357     19359     19360
     19356     19357     19359     19361     19356     19357     19359     19409
     19357     19359     19409     19410     19357     19359     19409     19411
     19357     19359     19409     19412     19358     19357     19359     19360
     19358     19357     19359     19361     19358     19357     19359     19409
     19359     19409     19412     19413     19359     19409     19412     19414
     19359     19409     19412     19415     19360     19359     19409     19410
     19360     19359     19409     19411     19360     19359     19409     19412
     19361     19359     19409     19410     19361     19359     19409     19411
     19361     19359     19409     19412     19362     19365     19368     19369
     19362     19365     19368     19370     19362     19365     19368     19371
     19363     19362     19365     19366     19363     19362     19365     19367
     19363     19362     19365     19368     19364     19362     19365     19366
     19364     19362     19365     19367     19364     19362     19365     19368
     19365     19368     19371     19372     19365     19368     19371     19373
     19365     19368     19371     19374     19366     19365     19368     19369
     19366     19365     19368     19370     19366     19365     19368     19371
     19367     19365     19368     19369     19367     19365     19368     19370
     19367     19365     19368     19371     19368     19371     19374     19375
     19368     19371     19374     19376     19368     19371     19374     19377
     19369     19368     19371     19372     19369     19368     19371     19373
     19369     19368     19371     19374     19370     19368     19371     19372
     19370     19368     19371     19373     19370     19368     19371     19374
     19371     19374     19377     19378     19371     19374     19377     19379
     19371     19374     19377     19380     19372     19371     19374     19375
     19372     19371     19374     19376     19372     19371     19374     19377
     19373     19371     19374     19375     19373     19371     19374     19376
     19373     19371     19374     19377     19374     19377     19380     19381
     19374     19377     19380     19382     19375     19374     19377     19378
     19375     19374     19377     19379     19375     19374     19377     19380
     19376     19374     19377     19378     19376     19374     19377     19379
     19376     19374     19377     19380     19377     19380     19382     19383
     19377     19380     19382     19384     19378     19377     19380     19381
     19378     19377     19380     19382     19379     19377     19380     19381
     19379     19377     19380     19382     19380     19382     19384     19385
     19380     19382     19384     19386     19380     19382     19384     19387
     19381     19380     19382     19383     19381     19380     19382     19384
     19382     19384     19387     19388     19382     19384     19387     19389
     19382     19384     19387     19390     19383     19382     19384     19385
     19383     19382     19384     19386     19383     19382     19384     19387
     19384     19387     19390     19391     19384     19387     19390     19392
     19384     19387     19390     19393     19385     19384     19387     19388
     19385     19384     19387     19389     19385     19384     19387     19390
     19386     19384     19387     19388     19386     19384     19387     19389
     19386     19384     19387     19390     19387     19390     19393     19394
     19387     19390     19393     19395     19387     19390     19393     19396
     19388     19387     19390     19391     19388     19387     19390     19392
     19388     19387     19390     19393     19389     19387     19390     19391
     19389     19387     19390     19392     19389     19387     19390     19393
     19390     19393     19396     19397     19390     19393     19396     19398
     19390     19393     19396     19399     19391     19390     19393     19394
     19391     19390     19393     19395     19391     19390     19393     19396
     19392     19390     19393     19394     19392     19390     19393     19395
     19392     19390     19393     19396     19393     19396     19399     19400
     19393     19396     19399     19401     19393     19396     19399     19402
     19394     19393     19396     19397     19394     19393     19396     19398
     19394     19393     19396     19399     19395     19393     19396     19397
     19395     19393     19396     19398     19395     19393     19396     19399
     19396     19399     19402     19403     19396     19399     19402     19404
     19396     19399     19402     19405     19397     19396     19399     19400
     19397     19396     19399     19401     19397     19396     19399     19402
     19398     19396     19399     19400     19398     19396     19399     19401
     19398     19396     19399     19402     19399     19402     19405     19406
     19399     19402     19405     19407     19399     19402     19405     19408
     19400     19399     19402     19403     19400     19399     19402     19404
     19400     19399     19402     19405     19401     19399     19402     19403
     19401     19399     19402     19404     19401     19399     19402     19405
     19403     19402     19405     19406     19403     19402     19405     19407
     19403     19402     19405     19408     19404     19402     19405     19406
     19404     19402     19405     19407     19404     19402     19405     19408
     19409     19412     19415     19416     19409     19412     19415     19417
     19409     19412     19415     19418     19410     19409     19412     19413
     19410     19409     19412     19414     19410     19409     19412     19415
     19411     19409     19412     19413     19411     19409     19412     19414
     19411     19409     19412     19415     19412     19415     19418     19419
     19412     19415     19418     19420     19412     19415     19418     19421
     19413     19412     19415     19416     19413     19412     19415     19417
     19413     19412     19415     19418     19414     19412     19415     19416
     19414     19412     19415     19417     19414     19412     19415     19418
     19415     19418     19421     19422     19415     19418     19421     19423
     19415     19418     19421     19424     19416     19415     19418     19419
     19416     19415     19418     19420     19416     19415     19418     19421
     19417     19415     19418     19419     19417     19415     19418     19420
     19417     19415     19418     19421     19418     19421     19424     19425
     19418     19421     19424     19426     19418     19421     19424     19427
     19419     19418     19421     19422     19419     19418     19421     19423
     19419     19418     19421     19424     19420     19418     19421     19422
     19420     19418     19421     19423     19420     19418     19421     19424
     19421     19424     19427     19428     19421     19424     19427     19429
     19421     19424     19427     19430     19422     19421     19424     19425
     19422     19421     19424     19426     19422     19421     19424     19427
     19423     19421     19424     19425     19423     19421     19424     19426
     19423     19421     19424     19427     19424     19427     19430     19431
     19424     19427     19430     19432     19424     19427     19430     19433
     19425     19424     19427     19428     19425     19424     19427     19429
     19425     19424     19427     19430     19426     19424     19427     19428
     19426     19424     19427     19429     19426     19424     19427     19430
     19427     19430     19433     19434     19427     19430     19433     19435
     19427     19430     19433     19436     19428     19427     19430     19431
     19428     19427     19430     19432     19428     19427     19430     19433
     19429     19427     19430     19431     19429     19427     19430     19432
     19429     19427     19430     19433     19430     19433     19436     19437
     19430     19433     19436     19438     19430     19433     19436     19439
     19431     19430     19433     19434     19431     19430     19433     19435
     19431     19430     19433     19436     19432     19430     19433     19434
     19432     19430     19433     19435     19432     19430     19433     19436
     19433     19436     19439     19440     19433     19436     19439     19441
     19433     19436     19439     19442     19434     19433     19436     19437
     19434     19433     19436     19438     19434     19433     19436     19439
     19435     19433     19436     19437     19435     19433     19436     19438
     19435     19433     19436     19439     19436     19439     19442     19443
     19436     19439     19442     19444     19436     19439     19442     19445
     19437     19436     19439     19440     19437     19436     19439     19441
     19437     19436     19439     19442     19438     19436     19439     19440
     19438     19436     19439     19441     19438     19436     19439     19442
     19439     19442     19445     19446     19439     19442     19445     19447
     19439     19442     19445     19448     19440     19439     19442     19443
     19440     19439     19442     19444     19440     19439     19442     19445
     19441     19439     19442     19443     19441     19439     19442     19444
     19441     19439     19442     19445     19442     19445     19448     19449
     19442     19445     19448     19450     19442     19445     19448     19451
     19443     19442     19445     19446     19443     19442     19445     19447
     19443     19442     19445     19448     19444     19442     19445     19446
     19444     19442     19445     19447     19444     19442     19445     19448
     19445     19448     19451     19452     19445     19448     19451     19453
     19445     19448     19451     19454     19446     19445     19448     19449
     19446     19445     19448     19450     19446     19445     19448     19451
     19447     19445     19448     19449     19447     19445     19448     19450
     19447     19445     19448     19451     19448     19451     19454     19455
     19448     19451     19454     19456     19448     19451     19454     19457
     19449     19448     19451     19452     19449     19448     19451     19453
     19449     19448     19451     19454     19450     19448     19451     19452
     19450     19448     19451     19453     19450     19448     19451     19454
     19452     19451     19454     19455     19452     19451     19454     19456
     19452     19451     19454     19457     19453     19451     19454     19455
     19453     19451     19454     19456     19453     19451     19454     19457
     19458     19462     19464     19465     19458     19462     19464     19466
     19458     19462     19467     19468     19458     19462     19467     19469
     19458     19462     19467     19473     19459     19458     19462     19463
     19459     19458     19462     19464     19459     19458     19462     19467
     19460     19458     19462     19463     19460     19458     19462     19464
     19460     19458     19462     19467     19461     19458     19462     19463
     19461     19458     19462     19464     19461     19458     19462     19467
     19462     19467     19473     19470     19463     19462     19464     19465
     19463     19462     19464     19466     19463     19462     19467     19468
     19463     19462     19467     19469     19463     19462     19467     19473
     19464     19462     19467     19468     19464     19462     19467     19469
     19464     19462     19467     19473     19465     19464     19462     19467
     19466     19464     19462     19467     19467     19473     19470     19471
     19467     19473     19470     19472     19467     19473     19470     19474
     19468     19467     19473     19470     19469     19467     19473     19470
     19470     19474     19475     19476     19470     19474     19475     19477
     19470     19474     19475     19478     19471     19470     19474     19475
     19472     19470     19474     19475     19473     19470     19474     19475
     19474     19475     19478     19479     19474     19475     19478     19480
     19474     19475     19478     19486     19475     19478     19480     19481
     19475     19478     19486     19487     19475     19478     19486     19488
     19475     19478     19486     19489     19476     19475     19478     19479
     19476     19475     19478     19480     19476     19475     19478     19486
     19477     19475     19478     19479     19477     19475     19478     19480
     19477     19475     19478     19486     19478     19480     19481     19482
     19478     19480     19481     19483     19478     19486     19489     19490
     19479     19478     19480     19481     19479     19478     19486     19487
     19479     19478     19486     19488     19479     19478     19486     19489
     19480     19478     19486     19487     19480     19478     19486     19488
     19480     19478     19486     19489     19480     19481     19483     19484
     19480     19481     19483     19485     19480     19481     19483     19495
     19481     19480     19478     19486     19481     19483     19495     19496
     19481     19483     19495     19497     19481     19483     19495     19498
     19482     19481     19483     19484     19482     19481     19483     19485
     19482     19481     19483     19495     19483     19495     19498     19499
     19483     19495     19498     19500     19483     19495     19498     19501
     19484     19483     19495     19496     19484     19483     19495     19497
     19484     19483     19495     19498     19485     19483     19495     19496
     19485     19483     19495     19497     19485     19483     19495     19498
     19486     19489     19490     19491     19486     19489     19490     19492
     19487     19486     19489     19490     19488     19486     19489     19490
     19489     19490     19492     19493     19489     19490     19492     19494
     19489     19490     19492     19542     19490     19492     19542     19543
     19490     19492     19542     19544     19490     19492     19542     19545
     19491     19490     19492     19493     19491     19490     19492     19494
     19491     19490     19492     19542     19492     19542     19545     19546
     19492     19542     19545     19547     19492     19542     19545     19548
     19493     19492     19542     19543     19493     19492     19542     19544
     19493     19492     19542     19545     19494     19492     19542     19543
     19494     19492     19542     19544     19494     19492     19542     19545
     19495     19498     19501     19502     19495     19498     19501     19503
     19496     19495     19498     19499     19496     19495     19498     19500
     19496     19495     19498     19501     19497     19495     19498     19499
     19497     19495     19498     19500     19497     19495     19498     19501
     19498     19501     19503     19504     19498     19501     19503     19505
     19499     19498     19501     19502     19499     19498     19501     19503
     19500     19498     19501     19502     19500     19498     19501     19503
     19501     19503     19505     19506     19501     19503     19505     19507
     19501     19503     19505     19508     19502     19501     19503     19504
     19502     19501     19503     19505     19503     19505     19508     19509
     19503     19505     19508     19510     19504     19503     19505     19506
     19504     19503     19505     19507     19504     19503     19505     19508
     19505     19508     19510     19511     19505     19508     19510     19512
     19506     19505     19508     19509     19506     19505     19508     19510
     19507     19505     19508     19509     19507     19505     19508     19510
     19508     19510     19512     19513     19508     19510     19512     19514
     19508     19510     19512     19515     19509     19508     19510     19511
     19509     19508     19510     19512     19510     19512     19515     19516
     19510     19512     19515     19517     19511     19510     19512     19513
     19511     19510     19512     19514     19511     19510     19512     19515
     19512     19515     19517     19518     19512     19515     19517     19519
     19513     19512     19515     19516     19513     19512     19515     19517
     19514     19512     19515     19516     19514     19512     19515     19517
     19515     19517     19519     19520     19515     19517     19519     19521
     19515     19517     19519     19522     19516     19515     19517     19518
     19516     19515     19517     19519     19517     19519     19522     19523
     19517     19519     19522     19524     19518     19517     19519     19520
     19518     19517     19519     19521     19518     19517     19519     19522
     19519     19522     19524     19525     19519     19522     19524     19526
     19520     19519     19522     19523     19520     19519     19522     19524
     19521     19519     19522     19523     19521     19519     19522     19524
     19522     19524     19526     19527     19522     19524     19526     19528
     19522     19524     19526     19529     19523     19522     19524     19525
     19523     19522     19524     19526     19524     19526     19529     19530
     19524     19526     19529     19531     19524     19526     19529     19532
     19525     19524     19526     19527     19525     19524     19526     19528
     19525     19524     19526     19529     19526     19529     19532     19533
     19526     19529     19532     19534     19526     19529     19532     19535
     19527     19526     19529     19530     19527     19526     19529     19531
     19527     19526     19529     19532     19528     19526     19529     19530
     19528     19526     19529     19531     19528     19526     19529     19532
     19529     19532     19535     19536     19529     19532     19535     19537
     19529     19532     19535     19538     19530     19529     19532     19533
     19530     19529     19532     19534     19530     19529     19532     19535
     19531     19529     19532     19533     19531     19529     19532     19534
     19531     19529     19532     19535     19532     19535     19538     19539
     19532     19535     19538     19540     19532     19535     19538     19541
     19533     19532     19535     19536     19533     19532     19535     19537
     19533     19532     19535     19538     19534     19532     19535     19536
     19534     19532     19535     19537     19534     19532     19535     19538
     19536     19535     19538     19539     19536     19535     19538     19540
     19536     19535     19538     19541     19537     19535     19538     19539
     19537     19535     19538     19540     19537     19535     19538     19541
     19542     19545     19548     19549     19542     19545     19548     19550
     19542     19545     19548     19551     19543     19542     19545     19546
     19543     19542     19545     19547     19543     19542     19545     19548
     19544     19542     19545     19546     19544     19542     19545     19547
     19544     19542     19545     19548     19545     19548     19551     19552
     19545     19548     19551     19553     19545     19548     19551     19554
     19546     19545     19548     19549     19546     19545     19548     19550
     19546     19545     19548     19551     19547     19545     19548     19549
     19547     19545     19548     19550     19547     19545     19548     19551
     19548     19551     19554     19555     19548     19551     19554     19556
     19548     19551     19554     19557     19549     19548     19551     19552
     19549     19548     19551     19553     19549     19548     19551     19554
     19550     19548     19551     19552     19550     19548     19551     19553
     19550     19548     19551     19554     19551     19554     19557     19558
     19551     19554     19557     19559     19551     19554     19557     19560
     19552     19551     19554     19555     19552     19551     19554     19556
     19552     19551     19554     19557     19553     19551     19554     19555
     19553     19551     19554     19556     19553     19551     19554     19557
     19554     19557     19560     19561     19554     19557     19560     19562
     19554     19557     19560     19563     19555     19554     19557     19558
     19555     19554     19557     19559     19555     19554     19557     19560
     19556     19554     19557     19558     19556     19554     19557     19559
     19556     19554     19557     19560     19557     19560     19563     19564
     19557     19560     19563     19565     19557     19560     19563     19566
     19558     19557     19560     19561     19558     19557     19560     19562
     19558     19557     19560     19563     19559     19557     19560     19561
     19559     19557     19560     19562     19559     19557     19560     19563
     19560     19563     19566     19567     19560     19563     19566     19568
     19560     19563     19566     19569     19561     19560     19563     19564
     19561     19560     19563     19565     19561     19560     19563     19566
     19562     19560     19563     19564     19562     19560     19563     19565
     19562     19560     19563     19566     19563     19566     19569     19570
     19563     19566     19569     19571     19563     19566     19569     19572
     19564     19563     19566     19567     19564     19563     19566     19568
     19564     19563     19566     19569     19565     19563     19566     19567
     19565     19563     19566     19568     19565     19563     19566     19569
     19566     19569     19572     19573     19566     19569     19572     19574
     19566     19569     19572     19575     19567     19566     19569     19570
     19567     19566     19569     19571     19567     19566     19569     19572
     19568     19566     19569     19570     19568     19566     19569     19571
     19568     19566     19569     19572     19569     19572     19575     19576
     19569     19572     19575     19577     19569     19572     19575     19578
     19570     19569     19572     19573     19570     19569     19572     19574
     19570     19569     19572     19575     19571     19569     19572     19573
     19571     19569     19572     19574     19571     19569     19572     19575
     19572     19575     19578     19579     19572     19575     19578     19580
     19572     19575     19578     19581     19573     19572     19575     19576
     19573     19572     19575     19577     19573     19572     19575     19578
     19574     19572     19575     19576     19574     19572     19575     19577
     19574     19572     19575     19578     19575     19578     19581     19582
     19575     19578     19581     19583     19575     19578     19581     19584
     19576     19575     19578     19579     19576     19575     19578     19580
     19576     19575     19578     19581     19577     19575     19578     19579
     19577     19575     19578     19580     19577     19575     19578     19581
     19578     19581     19584     19585     19578     19581     19584     19586
     19578     19581     19584     19587     19579     19578     19581     19582
     19579     19578     19581     19583     19579     19578     19581     19584
     19580     19578     19581     19582     19580     19578     19581     19583
     19580     19578     19581     19584     19581     19584     19587     19588
     19581     19584     19587     19589     19581     19584     19587     19590
     19582     19581     19584     19585     19582     19581     19584     19586
     19582     19581     19584     19587     19583     19581     19584     19585
     19583     19581     19584     19586     19583     19581     19584     19587
     19585     19584     19587     19588     19585     19584     19587     19589
     19585     19584     19587     19590     19586     19584     19587     19588
     19586     19584     19587     19589     19586     19584     19587     19590
     19591     19604     19607     19608     19591     19604     19607     19609
     19591     19604     19607     19614     19592     19591     19596     19597
     19592     19591     19596     19598     19592     19591     19596     19599
     19592     19591     19600     19601     19592     19591     19600     19602
     19592     19591     19600     19603     19592     19591     19604     19605
     19592     19591     19604     19606     19592     19591     19604     19607
     19593     19592     19591     19596     19593     19592     19591     19600
     19593     19592     19591     19604     19594     19592     19591     19596
     19594     19592     19591     19600     19594     19592     19591     19604
     19595     19592     19591     19596     19595     19592     19591     19600
     19595     19592     19591     19604     19596     19591     19600     19601
     19596     19591     19600     19602     19596     19591     19600     19603
     19596     19591     19604     19605     19596     19591     19604     19606
     19596     19591     19604     19607     19597     19596     19591     19600
     19597     19596     19591     19604     19598     19596     19591     19600
     19598     19596     19591     19604     19599     19596     19591     19600
     19599     19596     19591     19604     19600     19591     19604     19605
     19600     19591     19604     19606     19600     19591     19604     19607
     19601     19600     19591     19604     19602     19600     19591     19604
     19603     19600     19591     19604     19604     19607     19614     19610
     19605     19604     19607     19608     19605     19604     19607     19609
     19605     19604     19607     19614     19606     19604     19607     19608
     19606     19604     19607     19609     19606     19604     19607     19614
     19607     19614     19610     19611     19607     19614     19610     19612
     19607     19614     19610     19613     19608     19607     19614     19610
     19609     19607     19614     19610     19610     19613     19615     19616
     19610     19613     19615     19617     19610     19613     19615     19620
     19611     19610     19613     19615     19612     19610     19613     19615
     19613     19615     19620     19618     19613     19615     19620     19621
     19613     19615     19620     19622     19614     19610     19613     19615
     19615     19620     19618     19619     19615     19620     19618     19670
     19615     19620     19622     19623     19615     19620     19622     19624
     19615     19620     19622     19626     19616     19615     19620     19618
     19616     19615     19620     19621     19616     19615     19620     19622
     19617     19615     19620     19618     19617     19615     19620     19621
     19617     19615     19620     19622     19618     19620     19622     19623
     19618     19620     19622     19624     19618     19620     19622     19626
     19618     19670     19672     19673     19618     19670     19672     19674
     19618     19670     19672     19675     19619     19618     19620     19621
     19619     19618     19620     19622     19619     19618     19670     19671
     19619     19618     19670     19672     19620     19618     19670     19671
     19620     19618     19670     19672     19620     19622     19624     19625
     19620     19622     19626     19627     19620     19622     19626     19628
     19621     19620     19618     19670     19621     19620     19622     19623
     19621     19620     19622     19624     19621     19620     19622     19626
     19622     19620     19618     19670     19622     19626     19628     19629
     19622     19626     19628     19630     19623     19622     19624     19625
     19623     19622     19626     19627     19623     19622     19626     19628
     19624     19622     19626     19627     19624     19622     19626     19628
     19625     19624     19622     19626     19626     19628     19630     19631
     19626     19628     19630     19632     19626     19628     19630     19633
     19627     19626     19628     19629     19627     19626     19628     19630
     19628     19630     19633     19634     19628     19630     19633     19635
     19628     19630     19633     19636     19629     19628     19630     19631
     19629     19628     19630     19632     19629     19628     19630     19633
     19630     19633     19636     19637     19630     19633     19636     19638
     19630     19633     19636     19639     19631     19630     19633     19634
     19631     19630     19633     19635     19631     19630     19633     19636
     19632     19630     19633     19634     19632     19630     19633     19635
     19632     19630     19633     19636     19633     19636     19639     19640
     19633     19636     19639     19641     19633     19636     19639     19642
     19634     19633     19636     19637     19634     19633     19636     19638
     19634     19633     19636     19639     19635     19633     19636     19637
     19635     19633     19636     19638     19635     19633     19636     19639
     19636     19639     19642     19643     19636     19639     19642     19644
     19636     19639     19642     19645     19637     19636     19639     19640
     19637     19636     19639     19641     19637     19636     19639     19642
     19638     19636     19639     19640     19638     19636     19639     19641
     19638     19636     19639     19642     19639     19642     19645     19646
     19639     19642     19645     19647     19639     19642     19645     19648
     19640     19639     19642     19643     19640     19639     19642     19644
     19640     19639     19642     19645     19641     19639     19642     19643
     19641     19639     19642     19644     19641     19639     19642     19645
     19642     19645     19648     19649     19642     19645     19648     19650
     19642     19645     19648     19651     19643     19642     19645     19646
     19643     19642     19645     19647     19643     19642     19645     19648
     19644     19642     19645     19646     19644     19642     19645     19647
     19644     19642     19645     19648     19645     19648     19651     19652
     19645     19648     19651     19653     19645     19648     19651     19654
     19646     19645     19648     19649     19646     19645     19648     19650
     19646     19645     19648     19651     19647     19645     19648     19649
     19647     19645     19648     19650     19647     19645     19648     19651
     19648     19651     19654     19655     19648     19651     19654     19656
     19648     19651     19654     19657     19649     19648     19651     19652
     19649     19648     19651     19653     19649     19648     19651     19654
     19650     19648     19651     19652     19650     19648     19651     19653
     19650     19648     19651     19654     19651     19654     19657     19658
     19651     19654     19657     19659     19651     19654     19657     19660
     19652     19651     19654     19655     19652     19651     19654     19656
     19652     19651     19654     19657     19653     19651     19654     19655
     19653     19651     19654     19656     19653     19651     19654     19657
     19654     19657     19660     19661     19654     19657     19660     19662
     19654     19657     19660     19663     19655     19654     19657     19658
     19655     19654     19657     19659     19655     19654     19657     19660
     19656     19654     19657     19658     19656     19654     19657     19659
     19656     19654     19657     19660     19657     19660     19663     19664
     19657     19660     19663     19665     19657     19660     19663     19666
     19658     19657     19660     19661     19658     19657     19660     19662
     19658     19657     19660     19663     19659     19657     19660     19661
     19659     19657     19660     19662     19659     19657     19660     19663
     19660     19663     19666     19667     19660     19663     19666     19668
     19660     19663     19666     19669     19661     19660     19663     19664
     19661     19660     19663     19665     19661     19660     19663     19666
     19662     19660     19663     19664     19662     19660     19663     19665
     19662     19660     19663     19666     19664     19663     19666     19667
     19664     19663     19666     19668     19664     19663     19666     19669
     19665     19663     19666     19667     19665     19663     19666     19668
     19665     19663     19666     19669     19670     19672     19675     19676
     19670     19672     19675     19677     19670     19672     19675     19678
     19671     19670     19672     19673     19671     19670     19672     19674
     19671     19670     19672     19675     19672     19675     19678     19679
     19672     19675     19678     19680     19672     19675     19678     19681
     19673     19672     19675     19676     19673     19672     19675     19677
     19673     19672     19675     19678     19674     19672     19675     19676
     19674     19672     19675     19677     19674     19672     19675     19678
     19675     19678     19681     19682     19675     19678     19681     19683
     19675     19678     19681     19684     19676     19675     19678     19679
     19676     19675     19678     19680     19676     19675     19678     19681
     19677     19675     19678     19679     19677     19675     19678     19680
     19677     19675     19678     19681     19678     19681     19684     19685
     19678     19681     19684     19686     19678     19681     19684     19687
     19679     19678     19681     19682     19679     19678     19681     19683
     19679     19678     19681     19684     19680     19678     19681     19682
     19680     19678     19681     19683     19680     19678     19681     19684
     19681     19684     19687     19688     19681     19684     19687     19689
     19681     19684     19687     19690     19682     19681     19684     19685
     19682     19681     19684     19686     19682     19681     19684     19687
     19683     19681     19684     19685     19683     19681     19684     19686
     19683     19681     19684     19687     19684     19687     19690     19691
     19684     19687     19690     19692     19684     19687     19690     19693
     19685     19684     19687     19688     19685     19684     19687     19689
     19685     19684     19687     19690     19686     19684     19687     19688
     19686     19684     19687     19689     19686     19684     19687     19690
     19687     19690     19693     19694     19687     19690     19693     19695
     19688     19687     19690     19691     19688     19687     19690     19692
     19688     19687     19690     19693     19689     19687     19690     19691
     19689     19687     19690     19692     19689     19687     19690     19693
     19690     19693     19695     19696     19690     19693     19695     19697
     19691     19690     19693     19694     19691     19690     19693     19695
     19692     19690     19693     19694     19692     19690     19693     19695
     19693     19695     19697     19698     19693     19695     19697     19699
     19693     19695     19697     19700     19694     19693     19695     19696
     19694     19693     19695     19697     19695     19697     19700     19701
     19695     19697     19700     19702     19695     19697     19700     19703
     19696     19695     19697     19698     19696     19695     19697     19699
     19696     19695     19697     19700     19697     19700     19703     19704
     19697     19700     19703     19705     19697     19700     19703     19706
     19698     19697     19700     19701     19698     19697     19700     19702
     19698     19697     19700     19703     19699     19697     19700     19701
     19699     19697     19700     19702     19699     19697     19700     19703
     19700     19703     19706     19707     19700     19703     19706     19708
     19700     19703     19706     19709     19701     19700     19703     19704
     19701     19700     19703     19705     19701     19700     19703     19706
     19702     19700     19703     19704     19702     19700     19703     19705
     19702     19700     19703     19706     19703     19706     19709     19710
     19703     19706     19709     19711     19703     19706     19709     19712
     19704     19703     19706     19707     19704     19703     19706     19708
     19704     19703     19706     19709     19705     19703     19706     19707
     19705     19703     19706     19708     19705     19703     19706     19709
     19706     19709     19712     19713     19706     19709     19712     19714
     19706     19709     19712     19715     19707     19706     19709     19710
     19707     19706     19709     19711     19707     19706     19709     19712
     19708     19706     19709     19710     19708     19706     19709     19711
     19708     19706     19709     19712     19709     19712     19715     19716
     19709     19712     19715     19717     19709     19712     19715     19718
     19710     19709     19712     19713     19710     19709     19712     19714
     19710     19709     19712     19715     19711     19709     19712     19713
     19711     19709     19712     19714     19711     19709     19712     19715
     19712     19715     19718     19719     19712     19715     19718     19720
     19712     19715     19718     19721     19713     19712     19715     19716
     19713     19712     19715     19717     19713     19712     19715     19718
     19714     19712     19715     19716     19714     19712     19715     19717
     19714     19712     19715     19718     19716     19715     19718     19719
     19716     19715     19718     19720     19716     19715     19718     19721
     19717     19715     19718     19719     19717     19715     19718     19720
     19717     19715     19718     19721     19722     19726     19729     19730
     19722     19726     19729     19760     19722     19768     19765     19760
     19722     19768     19765     19766     19722     19768     19765     19767
     19723     19722     19724     19725     19723     19722     19726     19727
     19723     19722     19726     19728     19723     19722     19726     19729
     19723     19722     19768     19765     19723     19722     19768     19769
     19723     19722     19768     19770     19724     19722     19726     19727
     19724     19722     19726     19728     19724     19722     19726     19729
     19724     19722     19768     19765     19724     19722     19768     19769
     19724     19722     19768     19770     19725     19724     19722     19726
     19725     19724     19722     19768     19726     19722     19768     19765
     19726     19722     19768     19769     19726     19722     19768     19770
     19726     19729     19730     19731     19726     19729     19730     19732
     19726     19729     19760     19758     19726     19729     19760     19761
     19726     19729     19760     19765     19727     19726     19722     19768
     19727     19726     19729     19730     19727     19726     19729     19760
     19728     19726     19722     19768     19728     19726     19729     19730
     19728     19726     19729     19760     19729     19726     19722     19768
     19729     19730     19732     19733     19729     19730     19732     19734
     19729     19730     19732     19735     19729     19760     19758     19735
     19729     19760     19758     19755     19729     19760     19758     19759
     19729     19760     19761     19762     19729     19760     19761     19763
     19729     19760     19761     19764     19729     19760     19765     19766
     19729     19760     19765     19767     19729     19760     19765     19768
     19730     19729     19760     19758     19730     19729     19760     19761
     19730     19729     19760     19765     19730     19732     19735     19736
     19730     19732     19735     19737     19730     19732     19735     19758
     19731     19730     19729     19760     19731     19730     19732     19733
     19731     19730     19732     19734     19731     19730     19732     19735
     19732     19730     19729     19760     19732     19735     19737     19738
     19732     19735     19737     19739     19732     19735     19737     19747
     19732     19735     19758     19755     19732     19735     19758     19759
     19732     19735     19758     19760     19733     19732     19735     19736
     19733     19732     19735     19737     19733     19732     19735     19758
     19734     19732     19735     19736     19734     19732     19735     19737
     19734     19732     19735     19758     19735     19737     19739     19740
     19735     19737     19739     19741     19735     19737     19739     19742
     19735     19737     19747     19745     19735     19737     19747     19748
     19735     19737     19747     19752     19735     19758     19755     19752
     19735     19758     19755     19756     19735     19758     19755     19757
     19735     19758     19760     19761     19735     19758     19760     19765
     19736     19735     19737     19738     19736     19735     19737     19739
     19736     19735     19737     19747     19736     19735     19758     19755
     19736     19735     19758     19759     19736     19735     19758     19760
     19737     19735     19758     19755     19737     19735     19758     19759
     19737     19735     19758     19760     19737     19739     19742     19743
     19737     19739     19742     19744     19737     19739     19742     19745
     19737     19747     19745     19742     19737     19747     19745     19746
     19737     19747     19745     19771     19737     19747     19748     19749
     19737     19747     19748     19750     19737     19747     19748     19751
     19737     19747     19752     19753     19737     19747     19752     19754
     19737     19747     19752     19755     19738     19737     19735     19758
     19738     19737     19739     19740     19738     19737     19739     19741
     19738     19737     19739     19742     19738     19737     19747     19745
     19738     19737     19747     19748     19738     19737     19747     19752
     19739     19737     19735     19758     19739     19737     19747     19745
     19739     19737     19747     19748     19739     19737     19747     19752
     19739     19742     19745     19746     19739     19742     19745     19747
     19739     19742     19745     19771     19740     19739     19737     19747
     19740     19739     19742     19743     19740     19739     19742     19744
     19740     19739     19742     19745     19741     19739     19737     19747
     19741     19739     19742     19743     19741     19739     19742     19744
     19741     19739     19742     19745     19742     19739     19737     19747
     19742     19745     19747     19748     19742     19745     19747     19752
     19742     19745     19771     19772     19742     19745     19771     19773
     19742     19745     19771     19777     19743     19742     19745     19746
     19743     19742     19745     19747     19743     19742     19745     19771
     19744     19742     19745     19746     19744     19742     19745     19747
     19744     19742     19745     19771     19745     19747     19748     19749
     19745     19747     19748     19750     19745     19747     19748     19751
     19745     19747     19752     19753     19745     19747     19752     19754
     19745     19747     19752     19755     19745     19771     19773     19774
     19745     19771     19773     19775     19745     19771     19773     19776
     19745     19771     19777     19778     19745     19771     19777     19779
     19745     19771     19777     19780     19746     19745     19747     19748
     19746     19745     19747     19752     19746     19745     19771     19772
     19746     19745     19771     19773     19746     19745     19771     19777
     19747     19737     19735     19758     19747     19745     19771     19772
     19747     19745     19771     19773     19747     19745     19771     19777
     19747     19752     19755     19756     19747     19752     19755     19757
     19747     19752     19755     19758     19748     19747     19745     19771
     19748     19747     19752     19753     19748     19747     19752     19754
     19748     19747     19752     19755     19749     19748     19747     19752
     19750     19748     19747     19752     19751     19748     19747     19752
     19752     19747     19745     19771     19752     19755     19758     19759
     19752     19755     19758     19760     19753     19752     19755     19756
     19753     19752     19755     19757     19753     19752     19755     19758
     19754     19752     19755     19756     19754     19752     19755     19757
     19754     19752     19755     19758     19755     19758     19760     19761
     19755     19758     19760     19765     19756     19755     19758     19759
     19756     19755     19758     19760     19757     19755     19758     19759
     19757     19755     19758     19760     19758     19760     19761     19762
     19758     19760     19761     19763     19758     19760     19761     19764
     19758     19760     19765     19766     19758     19760     19765     19767
     19758     19760     19765     19768     19759     19758     19760     19761
     19759     19758     19760     19765     19760     19765     19768     19769
     19760     19765     19768     19770     19761     19760     19765     19766
     19761     19760     19765     19767     19761     19760     19765     19768
     19762     19761     19760     19765     19763     19761     19760     19765
     19764     19761     19760     19765     19766     19765     19768     19769
     19766     19765     19768     19770     19767     19765     19768     19769
     19767     19765     19768     19770     19771     19777     19780     19781
     19771     19777     19780     19782     19771     19777     19780     19783
     19772     19771     19773     19774     19772     19771     19773     19775
     19772     19771     19773     19776     19772     19771     19777     19778
     19772     19771     19777     19779     19772     19771     19777     19780
     19773     19771     19777     19778     19773     19771     19777     19779
     19773     19771     19777     19780     19774     19773     19771     19777
     19775     19773     19771     19777     19776     19773     19771     19777
     19777     19780     19783     19784     19777     19780     19783     19785
     19777     19780     19783     19786     19778     19777     19780     19781
     19778     19777     19780     19782     19778     19777     19780     19783
     19779     19777     19780     19781     19779     19777     19780     19782
     19779     19777     19780     19783     19780     19783     19786     19787
     19780     19783     19786     19788     19780     19783     19786     19792
     19781     19780     19783     19784     19781     19780     19783     19785
     19781     19780     19783     19786     19782     19780     19783     19784
     19782     19780     19783     19785     19782     19780     19783     19786
     19783     19786     19788     19789     19783     19786     19788     19790
     19783     19786     19788     19791     19783     19786     19792     19793
     19783     19786     19792     19794     19783     19786     19792     19795
     19784     19783     19786     19787     19784     19783     19786     19788
     19784     19783     19786     19792     19785     19783     19786     19787
     19785     19783     19786     19788     19785     19783     19786     19792
     19787     19786     19788     19789     19787     19786     19788     19790
     19787     19786     19788     19791     19787     19786     19792     19793
     19787     19786     19792     19794     19787     19786     19792     19795
     19788     19786     19792     19793     19788     19786     19792     19794
     19788     19786     19792     19795     19789     19788     19786     19792
     19790     19788     19786     19792     19791     19788     19786     19792
     19796     19800     19803     19804     19796     19800     19803     19834
     19796     19842     19839     19834     19796     19842     19839     19840
     19796     19842     19839     19841     19797     19796     19798     19799
     19797     19796     19800     19801     19797     19796     19800     19802
     19797     19796     19800     19803     19797     19796     19842     19839
     19797     19796     19842     19843     19797     19796     19842     19844
     19798     19796     19800     19801     19798     19796     19800     19802
     19798     19796     19800     19803     19798     19796     19842     19839
     19798     19796     19842     19843     19798     19796     19842     19844
     19799     19798     19796     19800     19799     19798     19796     19842
     19800     19796     19842     19839     19800     19796     19842     19843
     19800     19796     19842     19844     19800     19803     19804     19805
     19800     19803     19804     19806     19800     19803     19834     19832
     19800     19803     19834     19835     19800     19803     19834     19839
     19801     19800     19796     19842     19801     19800     19803     19804
     19801     19800     19803     19834     19802     19800     19796     19842
     19802     19800     19803     19804     19802     19800     19803     19834
     19803     19800     19796     19842     19803     19804     19806     19807
     19803     19804     19806     19808     19803     19804     19806     19809
     19803     19834     19832     19809     19803     19834     19832     19829
     19803     19834     19832     19833     19803     19834     19835     19836
     19803     19834     19835     19837     19803     19834     19835     19838
     19803     19834     19839     19840     19803     19834     19839     19841
     19803     19834     19839     19842     19804     19803     19834     19832
     19804     19803     19834     19835     19804     19803     19834     19839
     19804     19806     19809     19810     19804     19806     19809     19811
     19804     19806     19809     19832     19805     19804     19803     19834
     19805     19804     19806     19807     19805     19804     19806     19808
     19805     19804     19806     19809     19806     19804     19803     19834
     19806     19809     19811     19812     19806     19809     19811     19813
     19806     19809     19811     19821     19806     19809     19832     19829
     19806     19809     19832     19833     19806     19809     19832     19834
     19807     19806     19809     19810     19807     19806     19809     19811
     19807     19806     19809     19832     19808     19806     19809     19810
     19808     19806     19809     19811     19808     19806     19809     19832
     19809     19811     19813     19814     19809     19811     19813     19815
     19809     19811     19813     19816     19809     19811     19821     19819
     19809     19811     19821     19822     19809     19811     19821     19826
     19809     19832     19829     19826     19809     19832     19829     19830
     19809     19832     19829     19831     19809     19832     19834     19835
     19809     19832     19834     19839     19810     19809     19811     19812
     19810     19809     19811     19813     19810     19809     19811     19821
     19810     19809     19832     19829     19810     19809     19832     19833
     19810     19809     19832     19834     19811     19809     19832     19829
     19811     19809     19832     19833     19811     19809     19832     19834
     19811     19813     19816     19817     19811     19813     19816     19818
     19811     19813     19816     19819     19811     19821     19819     19816
     19811     19821     19819     19820     19811     19821     19819     19845
     19811     19821     19822     19823     19811     19821     19822     19824
     19811     19821     19822     19825     19811     19821     19826     19827
     19811     19821     19826     19828     19811     19821     19826     19829
     19812     19811     19809     19832     19812     19811     19813     19814
     19812     19811     19813     19815     19812     19811     19813     19816
     19812     19811     19821     19819     19812     19811     19821     19822
     19812     19811     19821     19826     19813     19811     19809     19832
     19813     19811     19821     19819     19813     19811     19821     19822
     19813     19811     19821     19826     19813     19816     19819     19820
     19813     19816     19819     19821     19813     19816     19819     19845
     19814     19813     19811     19821     19814     19813     19816     19817
     19814     19813     19816     19818     19814     19813     19816     19819
     19815     19813     19811     19821     19815     19813     19816     19817
     19815     19813     19816     19818     19815     19813     19816     19819
     19816     19813     19811     19821     19816     19819     19821     19822
     19816     19819     19821     19826     19816     19819     19845     19846
     19816     19819     19845     19847     19816     19819     19845     19851
     19817     19816     19819     19820     19817     19816     19819     19821
     19817     19816     19819     19845     19818     19816     19819     19820
     19818     19816     19819     19821     19818     19816     19819     19845
     19819     19821     19822     19823     19819     19821     19822     19824
     19819     19821     19822     19825     19819     19821     19826     19827
     19819     19821     19826     19828     19819     19821     19826     19829
     19819     19845     19847     19848     19819     19845     19847     19849
     19819     19845     19847     19850     19819     19845     19851     19852
     19819     19845     19851     19853     19819     19845     19851     19854
     19820     19819     19821     19822     19820     19819     19821     19826
     19820     19819     19845     19846     19820     19819     19845     19847
     19820     19819     19845     19851     19821     19811     19809     19832
     19821     19819     19845     19846     19821     19819     19845     19847
     19821     19819     19845     19851     19821     19826     19829     19830
     19821     19826     19829     19831     19821     19826     19829     19832
     19822     19821     19819     19845     19822     19821     19826     19827
     19822     19821     19826     19828     19822     19821     19826     19829
     19823     19822     19821     19826     19824     19822     19821     19826
     19825     19822     19821     19826     19826     19821     19819     19845
     19826     19829     19832     19833     19826     19829     19832     19834
     19827     19826     19829     19830     19827     19826     19829     19831
     19827     19826     19829     19832     19828     19826     19829     19830
     19828     19826     19829     19831     19828     19826     19829     19832
     19829     19832     19834     19835     19829     19832     19834     19839
     19830     19829     19832     19833     19830     19829     19832     19834
     19831     19829     19832     19833     19831     19829     19832     19834
     19832     19834     19835     19836     19832     19834     19835     19837
     19832     19834     19835     19838     19832     19834     19839     19840
     19832     19834     19839     19841     19832     19834     19839     19842
     19833     19832     19834     19835     19833     19832     19834     19839
     19834     19839     19842     19843     19834     19839     19842     19844
     19835     19834     19839     19840     19835     19834     19839     19841
     19835     19834     19839     19842     19836     19835     19834     19839
     19837     19835     19834     19839     19838     19835     19834     19839
     19840     19839     19842     19843     19840     19839     19842     19844
     19841     19839     19842     19843     19841     19839     19842     19844
     19845     19851     19854     19855     19845     19851     19854     19856
     19845     19851     19854     19857     19846     19845     19847     19848
     19846     19845     19847     19849     19846     19845     19847     19850
     19846     19845     19851     19852     19846     19845     19851     19853
     19846     19845     19851     19854     19847     19845     19851     19852
     19847     19845     19851     19853     19847     19845     19851     19854
     19848     19847     19845     19851     19849     19847     19845     19851
     19850     19847     19845     19851     19851     19854     19857     19858
     19851     19854     19857     19859     19851     19854     19857     19860
     19852     19851     19854     19855     19852     19851     19854     19856
     19852     19851     19854     19857     19853     19851     19854     19855
     19853     19851     19854     19856     19853     19851     19854     19857
     19854     19857     19860     19861     19854     19857     19860     19862
     19854     19857     19860     19866     19855     19854     19857     19858
     19855     19854     19857     19859     19855     19854     19857     19860
     19856     19854     19857     19858     19856     19854     19857     19859
     19856     19854     19857     19860     19857     19860     19862     19863
     19857     19860     19862     19864     19857     19860     19862     19865
     19857     19860     19866     19867     19857     19860     19866     19868
     19857     19860     19866     19869     19858     19857     19860     19861
     19858     19857     19860     19862     19858     19857     19860     19866
     19859     19857     19860     19861     19859     19857     19860     19862
     19859     19857     19860     19866     19861     19860     19862     19863
     19861     19860     19862     19864     19861     19860     19862     19865
     19861     19860     19866     19867     19861     19860     19866     19868
     19861     19860     19866     19869     19862     19860     19866     19867
     19862     19860     19866     19868     19862     19860     19866     19869
     19863     19862     19860     19866     19864     19862     19860     19866
     19865     19862     19860     19866     19870     19871     19886     19887
     19870     19871     19886     19888     19870     19871     19886     19892
     19871     19870     19874     19875     19871     19870     19874     19876
     19871     19870     19874     19877     19871     19870     19878     19879
     19871     19870     19878     19880     19871     19870     19878     19881
     19871     19870     19882     19883     19871     19870     19882     19884
     19871     19870     19882     19885     19871     19886     19892     19889
     19872     19871     19870     19874     19872     19871     19870     19878
     19872     19871     19870     19882     19872     19871     19886     19887
     19872     19871     19886     19888     19872     19871     19886     19892
     19873     19871     19870     19874     19873     19871     19870     19878
     19873     19871     19870     19882     19873     19871     19886     19887
     19873     19871     19886     19888     19873     19871     19886     19892
     19874     19870     19871     19886     19874     19870     19878     19879
     19874     19870     19878     19880     19874     19870     19878     19881
     19874     19870     19882     19883     19874     19870     19882     19884
     19874     19870     19882     19885     19875     19874     19870     19878
     19875     19874     19870     19882     19876     19874     19870     19878
     19876     19874     19870     19882     19877     19874     19870     19878
     19877     19874     19870     19882     19878     19870     19871     19886
     19878     19870     19882     19883     19878     19870     19882     19884
     19878     19870     19882     19885     19879     19878     19870     19882
     19880     19878     19870     19882     19881     19878     19870     19882
     19882     19870     19871     19886     19886     19892     19889     19890
     19886     19892     19889     19891     19886     19892     19889     19893
     19887     19886     19892     19889     19888     19886     19892     19889
     19889     19893     19894     19895     19889     19893     19894     19896
     19889     19893     19894     19897     19890     19889     19893     19894
     19891     19889     19893     19894     19892     19889     19893     19894
     19893     19894     19897     19898     19893     19894     19897     19899
     19893     19894     19897     19905     19894     19897     19899     19900
     19894     19897     19905     19906     19894     19897     19905     19907
     19894     19897     19905     19908     19895     19894     19897     19898
     19895     19894     19897     19899     19895     19894     19897     19905
     19896     19894     19897     19898     19896     19894     19897     19899
     19896     19894     19897     19905     19897     19899     19900     19901
     19897     19899     19900     19902     19897     19905     19908     19909
     19898     19897     19899     19900     19898     19897     19905     19906
     19898     19897     19905     19907     19898     19897     19905     19908
     19899     19897     19905     19906     19899     19897     19905     19907
     19899     19897     19905     19908     19899     19900     19902     19903
     19899     19900     19902     19904     19899     19900     19902     19914
     19900     19899     19897     19905     19900     19902     19914     19915
     19900     19902     19914     19916     19900     19902     19914     19917
     19901     19900     19902     19903     19901     19900     19902     19904
     19901     19900     19902     19914     19902     19914     19917     19918
     19902     19914     19917     19919     19902     19914     19917     19920
     19903     19902     19914     19915     19903     19902     19914     19916
     19903     19902     19914     19917     19904     19902     19914     19915
     19904     19902     19914     19916     19904     19902     19914     19917
     19905     19908     19909     19910     19905     19908     19909     19911
     19906     19905     19908     19909     19907     19905     19908     19909
     19908     19909     19911     19912     19908     19909     19911     19913
     19908     19909     19911     19961     19909     19911     19961     19962
     19909     19911     19961     19963     19909     19911     19961     19964
     19910     19909     19911     19912     19910     19909     19911     19913
     19910     19909     19911     19961     19911     19961     19964     19965
     19911     19961     19964     19966     19911     19961     19964     19967
     19912     19911     19961     19962     19912     19911     19961     19963
     19912     19911     19961     19964     19913     19911     19961     19962
     19913     19911     19961     19963     19913     19911     19961     19964
     19914     19917     19920     19921     19914     19917     19920     19922
     19915     19914     19917     19918     19915     19914     19917     19919
     19915     19914     19917     19920     19916     19914     19917     19918
     19916     19914     19917     19919     19916     19914     19917     19920
     19917     19920     19922     19923     19917     19920     19922     19924
     19918     19917     19920     19921     19918     19917     19920     19922
     19919     19917     19920     19921     19919     19917     19920     19922
     19920     19922     19924     19925     19920     19922     19924     19926
     19920     19922     19924     19927     19921     19920     19922     19923
     19921     19920     19922     19924     19922     19924     19927     19928
     19922     19924     19927     19929     19923     19922     19924     19925
     19923     19922     19924     19926     19923     19922     19924     19927
     19924     19927     19929     19930     19924     19927     19929     19931
     19925     19924     19927     19928     19925     19924     19927     19929
     19926     19924     19927     19928     19926     19924     19927     19929
     19927     19929     19931     19932     19927     19929     19931     19933
     19927     19929     19931     19934     19928     19927     19929     19930
     19928     19927     19929     19931     19929     19931     19934     19935
     19929     19931     19934     19936     19930     19929     19931     19932
     19930     19929     19931     19933     19930     19929     19931     19934
     19931     19934     19936     19937     19931     19934     19936     19938
     19932     19931     19934     19935     19932     19931     19934     19936
     19933     19931     19934     19935     19933     19931     19934     19936
     19934     19936     19938     19939     19934     19936     19938     19940
     19934     19936     19938     19941     19935     19934     19936     19937
     19935     19934     19936     19938     19936     19938     19941     19942
     19936     19938     19941     19943     19937     19936     19938     19939
     19937     19936     19938     19940     19937     19936     19938     19941
     19938     19941     19943     19944     19938     19941     19943     19945
     19939     19938     19941     19942     19939     19938     19941     19943
     19940     19938     19941     19942     19940     19938     19941     19943
     19941     19943     19945     19946     19941     19943     19945     19947
     19941     19943     19945     19948     19942     19941     19943     19944
     19942     19941     19943     19945     19943     19945     19948     19949
     19943     19945     19948     19950     19943     19945     19948     19951
     19944     19943     19945     19946     19944     19943     19945     19947
     19944     19943     19945     19948     19945     19948     19951     19952
     19945     19948     19951     19953     19945     19948     19951     19954
     19946     19945     19948     19949     19946     19945     19948     19950
     19946     19945     19948     19951     19947     19945     19948     19949
     19947     19945     19948     19950     19947     19945     19948     19951
     19948     19951     19954     19955     19948     19951     19954     19956
     19948     19951     19954     19957     19949     19948     19951     19952
     19949     19948     19951     19953     19949     19948     19951     19954
     19950     19948     19951     19952     19950     19948     19951     19953
     19950     19948     19951     19954     19951     19954     19957     19958
     19951     19954     19957     19959     19951     19954     19957     19960
     19952     19951     19954     19955     19952     19951     19954     19956
     19952     19951     19954     19957     19953     19951     19954     19955
     19953     19951     19954     19956     19953     19951     19954     19957
     19955     19954     19957     19958     19955     19954     19957     19959
     19955     19954     19957     19960     19956     19954     19957     19958
     19956     19954     19957     19959     19956     19954     19957     19960
     19961     19964     19967     19968     19961     19964     19967     19969
     19961     19964     19967     19970     19962     19961     19964     19965
     19962     19961     19964     19966     19962     19961     19964     19967
     19963     19961     19964     19965     19963     19961     19964     19966
     19963     19961     19964     19967     19964     19967     19970     19971
     19964     19967     19970     19972     19964     19967     19970     19973
     19965     19964     19967     19968     19965     19964     19967     19969
     19965     19964     19967     19970     19966     19964     19967     19968
     19966     19964     19967     19969     19966     19964     19967     19970
     19967     19970     19973     19974     19967     19970     19973     19975
     19967     19970     19973     19976     19968     19967     19970     19971
     19968     19967     19970     19972     19968     19967     19970     19973
     19969     19967     19970     19971     19969     19967     19970     19972
     19969     19967     19970     19973     19970     19973     19976     19977
     19970     19973     19976     19978     19970     19973     19976     19979
     19971     19970     19973     19974     19971     19970     19973     19975
     19971     19970     19973     19976     19972     19970     19973     19974
     19972     19970     19973     19975     19972     19970     19973     19976
     19973     19976     19979     19980     19973     19976     19979     19981
     19973     19976     19979     19982     19974     19973     19976     19977
     19974     19973     19976     19978     19974     19973     19976     19979
     19975     19973     19976     19977     19975     19973     19976     19978
     19975     19973     19976     19979     19976     19979     19982     19983
     19976     19979     19982     19984     19976     19979     19982     19985
     19977     19976     19979     19980     19977     19976     19979     19981
     19977     19976     19979     19982     19978     19976     19979     19980
     19978     19976     19979     19981     19978     19976     19979     19982
     19979     19982     19985     19986     19979     19982     19985     19987
     19979     19982     19985     19988     19980     19979     19982     19983
     19980     19979     19982     19984     19980     19979     19982     19985
     19981     19979     19982     19983     19981     19979     19982     19984
     19981     19979     19982     19985     19982     19985     19988     19989
     19982     19985     19988     19990     19982     19985     19988     19991
     19983     19982     19985     19986     19983     19982     19985     19987
     19983     19982     19985     19988     19984     19982     19985     19986
     19984     19982     19985     19987     19984     19982     19985     19988
     19985     19988     19991     19992     19985     19988     19991     19993
     19985     19988     19991     19994     19986     19985     19988     19989
     19986     19985     19988     19990     19986     19985     19988     19991
     19987     19985     19988     19989     19987     19985     19988     19990
     19987     19985     19988     19991     19988     19991     19994     19995
     19988     19991     19994     19996     19988     19991     19994     19997
     19989     19988     19991     19992     19989     19988     19991     19993
     19989     19988     19991     19994     19990     19988     19991     19992
     19990     19988     19991     19993     19990     19988     19991     19994
     19991     19994     19997     19998     19991     19994     19997     19999
     19991     19994     19997     20000     19992     19991     19994     19995
     19992     19991     19994     19996     19992     19991     19994     19997
     19993     19991     19994     19995     19993     19991     19994     19996
     19993     19991     19994     19997     19994     19997     20000     20001
     19994     19997     20000     20002     19994     19997     20000     20003
     19995     19994     19997     19998     19995     19994     19997     19999
     19995     19994     19997     20000     19996     19994     19997     19998
     19996     19994     19997     19999     19996     19994     19997     20000
     19997     20000     20003     20004     19997     20000     20003     20005
     19997     20000     20003     20006     19998     19997     20000     20001
     19998     19997     20000     20002     19998     19997     20000     20003
     19999     19997     20000     20001     19999     19997     20000     20002
     19999     19997     20000     20003     20000     20003     20006     20007
     20000     20003     20006     20008     20000     20003     20006     20009
     20001     20000     20003     20004     20001     20000     20003     20005
     20001     20000     20003     20006     20002     20000     20003     20004
     20002     20000     20003     20005     20002     20000     20003     20006
     20004     20003     20006     20007     20004     20003     20006     20008
     20004     20003     20006     20009     20005     20003     20006     20007
     20005     20003     20006     20008     20005     20003     20006     20009
     20010     20014     20017     20018     20010     20014     20017     20019
     20010     20014     20017     20023     20011     20010     20014     20015
     20011     20010     20014     20016     20011     20010     20014     20017
     20012     20010     20014     20015     20012     20010     20014     20016
     20012     20010     20014     20017     20013     20010     20014     20015
     20013     20010     20014     20016     20013     20010     20014     20017
     20014     20017     20023     20020     20015     20014     20017     20018
     20015     20014     20017     20019     20015     20014     20017     20023
     20016     20014     20017     20018     20016     20014     20017     20019
     20016     20014     20017     20023     20017     20023     20020     20021
     20017     20023     20020     20022     20017     20023     20020     20024
     20018     20017     20023     20020     20019     20017     20023     20020
     20020     20024     20025     20026     20020     20024     20025     20027
     20020     20024     20025     20028     20021     20020     20024     20025
     20022     20020     20024     20025     20023     20020     20024     20025
     20024     20025     20028     20029     20024     20025     20028     20030
     20024     20025     20028     20036     20025     20028     20030     20031
     20025     20028     20036     20037     20025     20028     20036     20038
     20025     20028     20036     20039     20026     20025     20028     20029
     20026     20025     20028     20030     20026     20025     20028     20036
     20027     20025     20028     20029     20027     20025     20028     20030
     20027     20025     20028     20036     20028     20030     20031     20032
     20028     20030     20031     20033     20028     20036     20039     20040
     20029     20028     20030     20031     20029     20028     20036     20037
     20029     20028     20036     20038     20029     20028     20036     20039
     20030     20028     20036     20037     20030     20028     20036     20038
     20030     20028     20036     20039     20030     20031     20033     20034
     20030     20031     20033     20035     20030     20031     20033     20045
     20031     20030     20028     20036     20031     20033     20045     20046
     20031     20033     20045     20047     20031     20033     20045     20048
     20032     20031     20033     20034     20032     20031     20033     20035
     20032     20031     20033     20045     20033     20045     20048     20049
     20033     20045     20048     20050     20033     20045     20048     20051
     20034     20033     20045     20046     20034     20033     20045     20047
     20034     20033     20045     20048     20035     20033     20045     20046
     20035     20033     20045     20047     20035     20033     20045     20048
     20036     20039     20040     20041     20036     20039     20040     20042
     20037     20036     20039     20040     20038     20036     20039     20040
     20039     20040     20042     20043     20039     20040     20042     20044
     20039     20040     20042     20092     20040     20042     20092     20093
     20040     20042     20092     20094     20040     20042     20092     20095
     20041     20040     20042     20043     20041     20040     20042     20044
     20041     20040     20042     20092     20042     20092     20095     20096
     20042     20092     20095     20097     20042     20092     20095     20098
     20043     20042     20092     20093     20043     20042     20092     20094
     20043     20042     20092     20095     20044     20042     20092     20093
     20044     20042     20092     20094     20044     20042     20092     20095
     20045     20048     20051     20052     20045     20048     20051     20053
     20046     20045     20048     20049     20046     20045     20048     20050
     20046     20045     20048     20051     20047     20045     20048     20049
     20047     20045     20048     20050     20047     20045     20048     20051
     20048     20051     20053     20054     20048     20051     20053     20055
     20049     20048     20051     20052     20049     20048     20051     20053
     20050     20048     20051     20052     20050     20048     20051     20053
     20051     20053     20055     20056     20051     20053     20055     20057
     20051     20053     20055     20058     20052     20051     20053     20054
     20052     20051     20053     20055     20053     20055     20058     20059
     20053     20055     20058     20060     20054     20053     20055     20056
     20054     20053     20055     20057     20054     20053     20055     20058
     20055     20058     20060     20061     20055     20058     20060     20062
     20056     20055     20058     20059     20056     20055     20058     20060
     20057     20055     20058     20059     20057     20055     20058     20060
     20058     20060     20062     20063     20058     20060     20062     20064
     20058     20060     20062     20065     20059     20058     20060     20061
     20059     20058     20060     20062     20060     20062     20065     20066
     20060     20062     20065     20067     20061     20060     20062     20063
     20061     20060     20062     20064     20061     20060     20062     20065
     20062     20065     20067     20068     20062     20065     20067     20069
     20063     20062     20065     20066     20063     20062     20065     20067
     20064     20062     20065     20066     20064     20062     20065     20067
     20065     20067     20069     20070     20065     20067     20069     20071
     20065     20067     20069     20072     20066     20065     20067     20068
     20066     20065     20067     20069     20067     20069     20072     20073
     20067     20069     20072     20074     20068     20067     20069     20070
     20068     20067     20069     20071     20068     20067     20069     20072
     20069     20072     20074     20075     20069     20072     20074     20076
     20070     20069     20072     20073     20070     20069     20072     20074
     20071     20069     20072     20073     20071     20069     20072     20074
     20072     20074     20076     20077     20072     20074     20076     20078
     20072     20074     20076     20079     20073     20072     20074     20075
     20073     20072     20074     20076     20074     20076     20079     20080
     20074     20076     20079     20081     20074     20076     20079     20082
     20075     20074     20076     20077     20075     20074     20076     20078
     20075     20074     20076     20079     20076     20079     20082     20083
     20076     20079     20082     20084     20076     20079     20082     20085
     20077     20076     20079     20080     20077     20076     20079     20081
     20077     20076     20079     20082     20078     20076     20079     20080
     20078     20076     20079     20081     20078     20076     20079     20082
     20079     20082     20085     20086     20079     20082     20085     20087
     20079     20082     20085     20088     20080     20079     20082     20083
     20080     20079     20082     20084     20080     20079     20082     20085
     20081     20079     20082     20083     20081     20079     20082     20084
     20081     20079     20082     20085     20082     20085     20088     20089
     20082     20085     20088     20090     20082     20085     20088     20091
     20083     20082     20085     20086     20083     20082     20085     20087
     20083     20082     20085     20088     20084     20082     20085     20086
     20084     20082     20085     20087     20084     20082     20085     20088
     20086     20085     20088     20089     20086     20085     20088     20090
     20086     20085     20088     20091     20087     20085     20088     20089
     20087     20085     20088     20090     20087     20085     20088     20091
     20092     20095     20098     20099     20092     20095     20098     20100
     20092     20095     20098     20101     20093     20092     20095     20096
     20093     20092     20095     20097     20093     20092     20095     20098
     20094     20092     20095     20096     20094     20092     20095     20097
     20094     20092     20095     20098     20095     20098     20101     20102
     20095     20098     20101     20103     20095     20098     20101     20104
     20096     20095     20098     20099     20096     20095     20098     20100
     20096     20095     20098     20101     20097     20095     20098     20099
     20097     20095     20098     20100     20097     20095     20098     20101
     20098     20101     20104     20105     20098     20101     20104     20106
     20098     20101     20104     20107     20099     20098     20101     20102
     20099     20098     20101     20103     20099     20098     20101     20104
     20100     20098     20101     20102     20100     20098     20101     20103
     20100     20098     20101     20104     20101     20104     20107     20108
     20101     20104     20107     20109     20101     20104     20107     20110
     20102     20101     20104     20105     20102     20101     20104     20106
     20102     20101     20104     20107     20103     20101     20104     20105
     20103     20101     20104     20106     20103     20101     20104     20107
     20104     20107     20110     20111     20104     20107     20110     20112
     20104     20107     20110     20113     20105     20104     20107     20108
     20105     20104     20107     20109     20105     20104     20107     20110
     20106     20104     20107     20108     20106     20104     20107     20109
     20106     20104     20107     20110     20107     20110     20113     20114
     20107     20110     20113     20115     20107     20110     20113     20116
     20108     20107     20110     20111     20108     20107     20110     20112
     20108     20107     20110     20113     20109     20107     20110     20111
     20109     20107     20110     20112     20109     20107     20110     20113
     20110     20113     20116     20117     20110     20113     20116     20118
     20110     20113     20116     20119     20111     20110     20113     20114
     20111     20110     20113     20115     20111     20110     20113     20116
     20112     20110     20113     20114     20112     20110     20113     20115
     20112     20110     20113     20116     20113     20116     20119     20120
     20113     20116     20119     20121     20113     20116     20119     20122
     20114     20113     20116     20117     20114     20113     20116     20118
     20114     20113     20116     20119     20115     20113     20116     20117
     20115     20113     20116     20118     20115     20113     20116     20119
     20116     20119     20122     20123     20116     20119     20122     20124
     20116     20119     20122     20125     20117     20116     20119     20120
     20117     20116     20119     20121     20117     20116     20119     20122
     20118     20116     20119     20120     20118     20116     20119     20121
     20118     20116     20119     20122     20119     20122     20125     20126
     20119     20122     20125     20127     20119     20122     20125     20128
     20120     20119     20122     20123     20120     20119     20122     20124
     20120     20119     20122     20125     20121     20119     20122     20123
     20121     20119     20122     20124     20121     20119     20122     20125
     20122     20125     20128     20129     20122     20125     20128     20130
     20122     20125     20128     20131     20123     20122     20125     20126
     20123     20122     20125     20127     20123     20122     20125     20128
     20124     20122     20125     20126     20124     20122     20125     20127
     20124     20122     20125     20128     20125     20128     20131     20132
     20125     20128     20131     20133     20125     20128     20131     20134
     20126     20125     20128     20129     20126     20125     20128     20130
     20126     20125     20128     20131     20127     20125     20128     20129
     20127     20125     20128     20130     20127     20125     20128     20131
     20128     20131     20134     20135     20128     20131     20134     20136
     20128     20131     20134     20137     20129     20128     20131     20132
     20129     20128     20131     20133     20129     20128     20131     20134
     20130     20128     20131     20132     20130     20128     20131     20133
     20130     20128     20131     20134     20131     20134     20137     20138
     20131     20134     20137     20139     20131     20134     20137     20140
     20132     20131     20134     20135     20132     20131     20134     20136
     20132     20131     20134     20137     20133     20131     20134     20135
     20133     20131     20134     20136     20133     20131     20134     20137
     20135     20134     20137     20138     20135     20134     20137     20139
     20135     20134     20137     20140     20136     20134     20137     20138
     20136     20134     20137     20139     20136     20134     20137     20140
     20141     20154     20157     20158     20141     20154     20157     20159
     20141     20154     20157     20164     20142     20141     20146     20147
     20142     20141     20146     20148     20142     20141     20146     20149
     20142     20141     20150     20151     20142     20141     20150     20152
     20142     20141     20150     20153     20142     20141     20154     20155
     20142     20141     20154     20156     20142     20141     20154     20157
     20143     20142     20141     20146     20143     20142     20141     20150
     20143     20142     20141     20154     20144     20142     20141     20146
     20144     20142     20141     20150     20144     20142     20141     20154
     20145     20142     20141     20146     20145     20142     20141     20150
     20145     20142     20141     20154     20146     20141     20150     20151
     20146     20141     20150     20152     20146     20141     20150     20153
     20146     20141     20154     20155     20146     20141     20154     20156
     20146     20141     20154     20157     20147     20146     20141     20150
     20147     20146     20141     20154     20148     20146     20141     20150
     20148     20146     20141     20154     20149     20146     20141     20150
     20149     20146     20141     20154     20150     20141     20154     20155
     20150     20141     20154     20156     20150     20141     20154     20157
     20151     20150     20141     20154     20152     20150     20141     20154
     20153     20150     20141     20154     20154     20157     20164     20160
     20155     20154     20157     20158     20155     20154     20157     20159
     20155     20154     20157     20164     20156     20154     20157     20158
     20156     20154     20157     20159     20156     20154     20157     20164
     20157     20164     20160     20161     20157     20164     20160     20162
     20157     20164     20160     20163     20158     20157     20164     20160
     20159     20157     20164     20160     20160     20163     20165     20166
     20160     20163     20165     20167     20160     20163     20165     20170
     20161     20160     20163     20165     20162     20160     20163     20165
     20163     20165     20170     20168     20163     20165     20170     20171
     20163     20165     20170     20172     20164     20160     20163     20165
     20165     20170     20168     20169     20165     20170     20168     20220
     20165     20170     20172     20173     20165     20170     20172     20174
     20165     20170     20172     20176     20166     20165     20170     20168
     20166     20165     20170     20171     20166     20165     20170     20172
     20167     20165     20170     20168     20167     20165     20170     20171
     20167     20165     20170     20172     20168     20170     20172     20173
     20168     20170     20172     20174     20168     20170     20172     20176
     20168     20220     20222     20223     20168     20220     20222     20224
     20168     20220     20222     20225     20169     20168     20170     20171
     20169     20168     20170     20172     20169     20168     20220     20221
     20169     20168     20220     20222     20170     20168     20220     20221
     20170     20168     20220     20222     20170     20172     20174     20175
     20170     20172     20176     20177     20170     20172     20176     20178
     20171     20170     20168     20220     20171     20170     20172     20173
     20171     20170     20172     20174     20171     20170     20172     20176
     20172     20170     20168     20220     20172     20176     20178     20179
     20172     20176     20178     20180     20173     20172     20174     20175
     20173     20172     20176     20177     20173     20172     20176     20178
     20174     20172     20176     20177     20174     20172     20176     20178
     20175     20174     20172     20176     20176     20178     20180     20181
     20176     20178     20180     20182     20176     20178     20180     20183
     20177     20176     20178     20179     20177     20176     20178     20180
     20178     20180     20183     20184     20178     20180     20183     20185
     20178     20180     20183     20186     20179     20178     20180     20181
     20179     20178     20180     20182     20179     20178     20180     20183
     20180     20183     20186     20187     20180     20183     20186     20188
     20180     20183     20186     20189     20181     20180     20183     20184
     20181     20180     20183     20185     20181     20180     20183     20186
     20182     20180     20183     20184     20182     20180     20183     20185
     20182     20180     20183     20186     20183     20186     20189     20190
     20183     20186     20189     20191     20183     20186     20189     20192
     20184     20183     20186     20187     20184     20183     20186     20188
     20184     20183     20186     20189     20185     20183     20186     20187
     20185     20183     20186     20188     20185     20183     20186     20189
     20186     20189     20192     20193     20186     20189     20192     20194
     20186     20189     20192     20195     20187     20186     20189     20190
     20187     20186     20189     20191     20187     20186     20189     20192
     20188     20186     20189     20190     20188     20186     20189     20191
     20188     20186     20189     20192     20189     20192     20195     20196
     20189     20192     20195     20197     20189     20192     20195     20198
     20190     20189     20192     20193     20190     20189     20192     20194
     20190     20189     20192     20195     20191     20189     20192     20193
     20191     20189     20192     20194     20191     20189     20192     20195
     20192     20195     20198     20199     20192     20195     20198     20200
     20192     20195     20198     20201     20193     20192     20195     20196
     20193     20192     20195     20197     20193     20192     20195     20198
     20194     20192     20195     20196     20194     20192     20195     20197
     20194     20192     20195     20198     20195     20198     20201     20202
     20195     20198     20201     20203     20195     20198     20201     20204
     20196     20195     20198     20199     20196     20195     20198     20200
     20196     20195     20198     20201     20197     20195     20198     20199
     20197     20195     20198     20200     20197     20195     20198     20201
     20198     20201     20204     20205     20198     20201     20204     20206
     20198     20201     20204     20207     20199     20198     20201     20202
     20199     20198     20201     20203     20199     20198     20201     20204
     20200     20198     20201     20202     20200     20198     20201     20203
     20200     20198     20201     20204     20201     20204     20207     20208
     20201     20204     20207     20209     20201     20204     20207     20210
     20202     20201     20204     20205     20202     20201     20204     20206
     20202     20201     20204     20207     20203     20201     20204     20205
     20203     20201     20204     20206     20203     20201     20204     20207
     20204     20207     20210     20211     20204     20207     20210     20212
     20204     20207     20210     20213     20205     20204     20207     20208
     20205     20204     20207     20209     20205     20204     20207     20210
     20206     20204     20207     20208     20206     20204     20207     20209
     20206     20204     20207     20210     20207     20210     20213     20214
     20207     20210     20213     20215     20207     20210     20213     20216
     20208     20207     20210     20211     20208     20207     20210     20212
     20208     20207     20210     20213     20209     20207     20210     20211
     20209     20207     20210     20212     20209     20207     20210     20213
     20210     20213     20216     20217     20210     20213     20216     20218
     20210     20213     20216     20219     20211     20210     20213     20214
     20211     20210     20213     20215     20211     20210     20213     20216
     20212     20210     20213     20214     20212     20210     20213     20215
     20212     20210     20213     20216     20214     20213     20216     20217
     20214     20213     20216     20218     20214     20213     20216     20219
     20215     20213     20216     20217     20215     20213     20216     20218
     20215     20213     20216     20219     20220     20222     20225     20226
     20220     20222     20225     20227     20220     20222     20225     20228
     20221     20220     20222     20223     20221     20220     20222     20224
     20221     20220     20222     20225     20222     20225     20228     20229
     20222     20225     20228     20230     20222     20225     20228     20231
     20223     20222     20225     20226     20223     20222     20225     20227
     20223     20222     20225     20228     20224     20222     20225     20226
     20224     20222     20225     20227     20224     20222     20225     20228
     20225     20228     20231     20232     20225     20228     20231     20233
     20225     20228     20231     20234     20226     20225     20228     20229
     20226     20225     20228     20230     20226     20225     20228     20231
     20227     20225     20228     20229     20227     20225     20228     20230
     20227     20225     20228     20231     20228     20231     20234     20235
     20228     20231     20234     20236     20228     20231     20234     20237
     20229     20228     20231     20232     20229     20228     20231     20233
     20229     20228     20231     20234     20230     20228     20231     20232
     20230     20228     20231     20233     20230     20228     20231     20234
     20231     20234     20237     20238     20231     20234     20237     20239
     20231     20234     20237     20240     20232     20231     20234     20235
     20232     20231     20234     20236     20232     20231     20234     20237
     20233     20231     20234     20235     20233     20231     20234     20236
     20233     20231     20234     20237     20234     20237     20240     20241
     20234     20237     20240     20242     20234     20237     20240     20243
     20235     20234     20237     20238     20235     20234     20237     20239
     20235     20234     20237     20240     20236     20234     20237     20238
     20236     20234     20237     20239     20236     20234     20237     20240
     20237     20240     20243     20244     20237     20240     20243     20245
     20238     20237     20240     20241     20238     20237     20240     20242
     20238     20237     20240     20243     20239     20237     20240     20241
     20239     20237     20240     20242     20239     20237     20240     20243
     20240     20243     20245     20246     20240     20243     20245     20247
     20241     20240     20243     20244     20241     20240     20243     20245
     20242     20240     20243     20244     20242     20240     20243     20245
     20243     20245     20247     20248     20243     20245     20247     20249
     20243     20245     20247     20250     20244     20243     20245     20246
     20244     20243     20245     20247     20245     20247     20250     20251
     20245     20247     20250     20252     20245     20247     20250     20253
     20246     20245     20247     20248     20246     20245     20247     20249
     20246     20245     20247     20250     20247     20250     20253     20254
     20247     20250     20253     20255     20247     20250     20253     20256
     20248     20247     20250     20251     20248     20247     20250     20252
     20248     20247     20250     20253     20249     20247     20250     20251
     20249     20247     20250     20252     20249     20247     20250     20253
     20250     20253     20256     20257     20250     20253     20256     20258
     20250     20253     20256     20259     20251     20250     20253     20254
     20251     20250     20253     20255     20251     20250     20253     20256
     20252     20250     20253     20254     20252     20250     20253     20255
     20252     20250     20253     20256     20253     20256     20259     20260
     20253     20256     20259     20261     20253     20256     20259     20262
     20254     20253     20256     20257     20254     20253     20256     20258
     20254     20253     20256     20259     20255     20253     20256     20257
     20255     20253     20256     20258     20255     20253     20256     20259
     20256     20259     20262     20263     20256     20259     20262     20264
     20256     20259     20262     20265     20257     20256     20259     20260
     20257     20256     20259     20261     20257     20256     20259     20262
     20258     20256     20259     20260     20258     20256     20259     20261
     20258     20256     20259     20262     20259     20262     20265     20266
     20259     20262     20265     20267     20259     20262     20265     20268
     20260     20259     20262     20263     20260     20259     20262     20264
     20260     20259     20262     20265     20261     20259     20262     20263
     20261     20259     20262     20264     20261     20259     20262     20265
     20262     20265     20268     20269     20262     20265     20268     20270
     20262     20265     20268     20271     20263     20262     20265     20266
     20263     20262     20265     20267     20263     20262     20265     20268
     20264     20262     20265     20266     20264     20262     20265     20267
     20264     20262     20265     20268     20266     20265     20268     20269
     20266     20265     20268     20270     20266     20265     20268     20271
     20267     20265     20268     20269     20267     20265     20268     20270
     20267     20265     20268     20271     20272     20276     20279     20280
     20272     20276     20279     20281     20272     20276     20279     20285
     20273     20272     20276     20277     20273     20272     20276     20278
     20273     20272     20276     20279     20274     20272     20276     20277
     20274     20272     20276     20278     20274     20272     20276     20279
     20275     20272     20276     20277     20275     20272     20276     20278
     20275     20272     20276     20279     20276     20279     20285     20282
     20277     20276     20279     20280     20277     20276     20279     20281
     20277     20276     20279     20285     20278     20276     20279     20280
     20278     20276     20279     20281     20278     20276     20279     20285
     20279     20285     20282     20283     20279     20285     20282     20284
     20279     20285     20282     20286     20280     20279     20285     20282
     20281     20279     20285     20282     20282     20286     20287     20288
     20282     20286     20287     20289     20282     20286     20287     20290
     20283     20282     20286     20287     20284     20282     20286     20287
     20285     20282     20286     20287     20286     20287     20290     20291
     20286     20287     20290     20292     20286     20287     20290     20298
     20287     20290     20292     20293     20287     20290     20298     20299
     20287     20290     20298     20300     20287     20290     20298     20301
     20288     20287     20290     20291     20288     20287     20290     20292
     20288     20287     20290     20298     20289     20287     20290     20291
     20289     20287     20290     20292     20289     20287     20290     20298
     20290     20292     20293     20294     20290     20292     20293     20295
     20290     20298     20301     20302     20291     20290     20292     20293
     20291     20290     20298     20299     20291     20290     20298     20300
     20291     20290     20298     20301     20292     20290     20298     20299
     20292     20290     20298     20300     20292     20290     20298     20301
     20292     20293     20295     20296     20292     20293     20295     20297
     20292     20293     20295     20307     20293     20292     20290     20298
     20293     20295     20307     20308     20293     20295     20307     20309
     20293     20295     20307     20310     20294     20293     20295     20296
     20294     20293     20295     20297     20294     20293     20295     20307
     20295     20307     20310     20311     20295     20307     20310     20312
     20295     20307     20310     20313     20296     20295     20307     20308
     20296     20295     20307     20309     20296     20295     20307     20310
     20297     20295     20307     20308     20297     20295     20307     20309
     20297     20295     20307     20310     20298     20301     20302     20303
     20298     20301     20302     20304     20299     20298     20301     20302
     20300     20298     20301     20302     20301     20302     20304     20305
     20301     20302     20304     20306     20301     20302     20304     20354
     20302     20304     20354     20355     20302     20304     20354     20356
     20302     20304     20354     20357     20303     20302     20304     20305
     20303     20302     20304     20306     20303     20302     20304     20354
     20304     20354     20357     20358     20304     20354     20357     20359
     20304     20354     20357     20360     20305     20304     20354     20355
     20305     20304     20354     20356     20305     20304     20354     20357
     20306     20304     20354     20355     20306     20304     20354     20356
     20306     20304     20354     20357     20307     20310     20313     20314
     20307     20310     20313     20315     20308     20307     20310     20311
     20308     20307     20310     20312     20308     20307     20310     20313
     20309     20307     20310     20311     20309     20307     20310     20312
     20309     20307     20310     20313     20310     20313     20315     20316
     20310     20313     20315     20317     20311     20310     20313     20314
     20311     20310     20313     20315     20312     20310     20313     20314
     20312     20310     20313     20315     20313     20315     20317     20318
     20313     20315     20317     20319     20313     20315     20317     20320
     20314     20313     20315     20316     20314     20313     20315     20317
     20315     20317     20320     20321     20315     20317     20320     20322
     20316     20315     20317     20318     20316     20315     20317     20319
     20316     20315     20317     20320     20317     20320     20322     20323
     20317     20320     20322     20324     20318     20317     20320     20321
     20318     20317     20320     20322     20319     20317     20320     20321
     20319     20317     20320     20322     20320     20322     20324     20325
     20320     20322     20324     20326     20320     20322     20324     20327
     20321     20320     20322     20323     20321     20320     20322     20324
     20322     20324     20327     20328     20322     20324     20327     20329
     20323     20322     20324     20325     20323     20322     20324     20326
     20323     20322     20324     20327     20324     20327     20329     20330
     20324     20327     20329     20331     20325     20324     20327     20328
     20325     20324     20327     20329     20326     20324     20327     20328
     20326     20324     20327     20329     20327     20329     20331     20332
     20327     20329     20331     20333     20327     20329     20331     20334
     20328     20327     20329     20330     20328     20327     20329     20331
     20329     20331     20334     20335     20329     20331     20334     20336
     20330     20329     20331     20332     20330     20329     20331     20333
     20330     20329     20331     20334     20331     20334     20336     20337
     20331     20334     20336     20338     20332     20331     20334     20335
     20332     20331     20334     20336     20333     20331     20334     20335
     20333     20331     20334     20336     20334     20336     20338     20339
     20334     20336     20338     20340     20334     20336     20338     20341
     20335     20334     20336     20337     20335     20334     20336     20338
     20336     20338     20341     20342     20336     20338     20341     20343
     20336     20338     20341     20344     20337     20336     20338     20339
     20337     20336     20338     20340     20337     20336     20338     20341
     20338     20341     20344     20345     20338     20341     20344     20346
     20338     20341     20344     20347     20339     20338     20341     20342
     20339     20338     20341     20343     20339     20338     20341     20344
     20340     20338     20341     20342     20340     20338     20341     20343
     20340     20338     20341     20344     20341     20344     20347     20348
     20341     20344     20347     20349     20341     20344     20347     20350
     20342     20341     20344     20345     20342     20341     20344     20346
     20342     20341     20344     20347     20343     20341     20344     20345
     20343     20341     20344     20346     20343     20341     20344     20347
     20344     20347     20350     20351     20344     20347     20350     20352
     20344     20347     20350     20353     20345     20344     20347     20348
     20345     20344     20347     20349     20345     20344     20347     20350
     20346     20344     20347     20348     20346     20344     20347     20349
     20346     20344     20347     20350     20348     20347     20350     20351
     20348     20347     20350     20352     20348     20347     20350     20353
     20349     20347     20350     20351     20349     20347     20350     20352
     20349     20347     20350     20353     20354     20357     20360     20361
     20354     20357     20360     20362     20354     20357     20360     20363
     20355     20354     20357     20358     20355     20354     20357     20359
     20355     20354     20357     20360     20356     20354     20357     20358
     20356     20354     20357     20359     20356     20354     20357     20360
     20357     20360     20363     20364     20357     20360     20363     20365
     20357     20360     20363     20366     20358     20357     20360     20361
     20358     20357     20360     20362     20358     20357     20360     20363
     20359     20357     20360     20361     20359     20357     20360     20362
     20359     20357     20360     20363     20360     20363     20366     20367
     20360     20363     20366     20368     20360     20363     20366     20369
     20361     20360     20363     20364     20361     20360     20363     20365
     20361     20360     20363     20366     20362     20360     20363     20364
     20362     20360     20363     20365     20362     20360     20363     20366
     20363     20366     20369     20370     20363     20366     20369     20371
     20363     20366     20369     20372     20364     20363     20366     20367
     20364     20363     20366     20368     20364     20363     20366     20369
     20365     20363     20366     20367     20365     20363     20366     20368
     20365     20363     20366     20369     20366     20369     20372     20373
     20366     20369     20372     20374     20366     20369     20372     20375
     20367     20366     20369     20370     20367     20366     20369     20371
     20367     20366     20369     20372     20368     20366     20369     20370
     20368     20366     20369     20371     20368     20366     20369     20372
     20369     20372     20375     20376     20369     20372     20375     20377
     20369     20372     20375     20378     20370     20369     20372     20373
     20370     20369     20372     20374     20370     20369     20372     20375
     20371     20369     20372     20373     20371     20369     20372     20374
     20371     20369     20372     20375     20372     20375     20378     20379
     20372     20375     20378     20380     20372     20375     20378     20381
     20373     20372     20375     20376     20373     20372     20375     20377
     20373     20372     20375     20378     20374     20372     20375     20376
     20374     20372     20375     20377     20374     20372     20375     20378
     20375     20378     20381     20382     20375     20378     20381     20383
     20375     20378     20381     20384     20376     20375     20378     20379
     20376     20375     20378     20380     20376     20375     20378     20381
     20377     20375     20378     20379     20377     20375     20378     20380
     20377     20375     20378     20381     20378     20381     20384     20385
     20378     20381     20384     20386     20378     20381     20384     20387
     20379     20378     20381     20382     20379     20378     20381     20383
     20379     20378     20381     20384     20380     20378     20381     20382
     20380     20378     20381     20383     20380     20378     20381     20384
     20381     20384     20387     20388     20381     20384     20387     20389
     20381     20384     20387     20390     20382     20381     20384     20385
     20382     20381     20384     20386     20382     20381     20384     20387
     20383     20381     20384     20385     20383     20381     20384     20386
     20383     20381     20384     20387     20384     20387     20390     20391
     20384     20387     20390     20392     20384     20387     20390     20393
     20385     20384     20387     20388     20385     20384     20387     20389
     20385     20384     20387     20390     20386     20384     20387     20388
     20386     20384     20387     20389     20386     20384     20387     20390
     20387     20390     20393     20394     20387     20390     20393     20395
     20387     20390     20393     20396     20388     20387     20390     20391
     20388     20387     20390     20392     20388     20387     20390     20393
     20389     20387     20390     20391     20389     20387     20390     20392
     20389     20387     20390     20393     20390     20393     20396     20397
     20390     20393     20396     20398     20390     20393     20396     20399
     20391     20390     20393     20394     20391     20390     20393     20395
     20391     20390     20393     20396     20392     20390     20393     20394
     20392     20390     20393     20395     20392     20390     20393     20396
     20393     20396     20399     20400     20393     20396     20399     20401
     20393     20396     20399     20402     20394     20393     20396     20397
     20394     20393     20396     20398     20394     20393     20396     20399
     20395     20393     20396     20397     20395     20393     20396     20398
     20395     20393     20396     20399     20397     20396     20399     20400
     20397     20396     20399     20401     20397     20396     20399     20402
     20398     20396     20399     20400     20398     20396     20399     20401
     20398     20396     20399     20402     20403     20416     20419     20420
     20403     20416     20419     20421     20403     20416     20419     20426
     20404     20403     20408     20409     20404     20403     20408     20410
     20404     20403     20408     20411     20404     20403     20412     20413
     20404     20403     20412     20414     20404     20403     20412     20415
     20404     20403     20416     20417     20404     20403     20416     20418
     20404     20403     20416     20419     20405     20404     20403     20408
     20405     20404     20403     20412     20405     20404     20403     20416
     20406     20404     20403     20408     20406     20404     20403     20412
     20406     20404     20403     20416     20407     20404     20403     20408
     20407     20404     20403     20412     20407     20404     20403     20416
     20408     20403     20412     20413     20408     20403     20412     20414
     20408     20403     20412     20415     20408     20403     20416     20417
     20408     20403     20416     20418     20408     20403     20416     20419
     20409     20408     20403     20412     20409     20408     20403     20416
     20410     20408     20403     20412     20410     20408     20403     20416
     20411     20408     20403     20412     20411     20408     20403     20416
     20412     20403     20416     20417     20412     20403     20416     20418
     20412     20403     20416     20419     20413     20412     20403     20416
     20414     20412     20403     20416     20415     20412     20403     20416
     20416     20419     20426     20422     20417     20416     20419     20420
     20417     20416     20419     20421     20417     20416     20419     20426
     20418     20416     20419     20420     20418     20416     20419     20421
     20418     20416     20419     20426     20419     20426     20422     20423
     20419     20426     20422     20424     20419     20426     20422     20425
     20420     20419     20426     20422     20421     20419     20426     20422
     20422     20425     20427     20428     20422     20425     20427     20429
     20422     20425     20427     20432     20423     20422     20425     20427
     20424     20422     20425     20427     20425     20427     20432     20430
     20425     20427     20432     20433     20425     20427     20432     20434
     20426     20422     20425     20427     20427     20432     20430     20431
     20427     20432     20430     20482     20427     20432     20434     20435
     20427     20432     20434     20436     20427     20432     20434     20438
     20428     20427     20432     20430     20428     20427     20432     20433
     20428     20427     20432     20434     20429     20427     20432     20430
     20429     20427     20432     20433     20429     20427     20432     20434
     20430     20432     20434     20435     20430     20432     20434     20436
     20430     20432     20434     20438     20430     20482     20484     20485
     20430     20482     20484     20486     20430     20482     20484     20487
     20431     20430     20432     20433     20431     20430     20432     20434
     20431     20430     20482     20483     20431     20430     20482     20484
     20432     20430     20482     20483     20432     20430     20482     20484
     20432     20434     20436     20437     20432     20434     20438     20439
     20432     20434     20438     20440     20433     20432     20430     20482
     20433     20432     20434     20435     20433     20432     20434     20436
     20433     20432     20434     20438     20434     20432     20430     20482
     20434     20438     20440     20441     20434     20438     20440     20442
     20435     20434     20436     20437     20435     20434     20438     20439
     20435     20434     20438     20440     20436     20434     20438     20439
     20436     20434     20438     20440     20437     20436     20434     20438
     20438     20440     20442     20443     20438     20440     20442     20444
     20438     20440     20442     20445     20439     20438     20440     20441
     20439     20438     20440     20442     20440     20442     20445     20446
     20440     20442     20445     20447     20440     20442     20445     20448
     20441     20440     20442     20443     20441     20440     20442     20444
     20441     20440     20442     20445     20442     20445     20448     20449
     20442     20445     20448     20450     20442     20445     20448     20451
     20443     20442     20445     20446     20443     20442     20445     20447
     20443     20442     20445     20448     20444     20442     20445     20446
     20444     20442     20445     20447     20444     20442     20445     20448
     20445     20448     20451     20452     20445     20448     20451     20453
     20445     20448     20451     20454     20446     20445     20448     20449
     20446     20445     20448     20450     20446     20445     20448     20451
     20447     20445     20448     20449     20447     20445     20448     20450
     20447     20445     20448     20451     20448     20451     20454     20455
     20448     20451     20454     20456     20448     20451     20454     20457
     20449     20448     20451     20452     20449     20448     20451     20453
     20449     20448     20451     20454     20450     20448     20451     20452
     20450     20448     20451     20453     20450     20448     20451     20454
     20451     20454     20457     20458     20451     20454     20457     20459
     20451     20454     20457     20460     20452     20451     20454     20455
     20452     20451     20454     20456     20452     20451     20454     20457
     20453     20451     20454     20455     20453     20451     20454     20456
     20453     20451     20454     20457     20454     20457     20460     20461
     20454     20457     20460     20462     20454     20457     20460     20463
     20455     20454     20457     20458     20455     20454     20457     20459
     20455     20454     20457     20460     20456     20454     20457     20458
     20456     20454     20457     20459     20456     20454     20457     20460
     20457     20460     20463     20464     20457     20460     20463     20465
     20457     20460     20463     20466     20458     20457     20460     20461
     20458     20457     20460     20462     20458     20457     20460     20463
     20459     20457     20460     20461     20459     20457     20460     20462
     20459     20457     20460     20463     20460     20463     20466     20467
     20460     20463     20466     20468     20460     20463     20466     20469
     20461     20460     20463     20464     20461     20460     20463     20465
     20461     20460     20463     20466     20462     20460     20463     20464
     20462     20460     20463     20465     20462     20460     20463     20466
     20463     20466     20469     20470     20463     20466     20469     20471
     20463     20466     20469     20472     20464     20463     20466     20467
     20464     20463     20466     20468     20464     20463     20466     20469
     20465     20463     20466     20467     20465     20463     20466     20468
     20465     20463     20466     20469     20466     20469     20472     20473
     20466     20469     20472     20474     20466     20469     20472     20475
     20467     20466     20469     20470     20467     20466     20469     20471
     20467     20466     20469     20472     20468     20466     20469     20470
     20468     20466     20469     20471     20468     20466     20469     20472
     20469     20472     20475     20476     20469     20472     20475     20477
     20469     20472     20475     20478     20470     20469     20472     20473
     20470     20469     20472     20474     20470     20469     20472     20475
     20471     20469     20472     20473     20471     20469     20472     20474
     20471     20469     20472     20475     20472     20475     20478     20479
     20472     20475     20478     20480     20472     20475     20478     20481
     20473     20472     20475     20476     20473     20472     20475     20477
     20473     20472     20475     20478     20474     20472     20475     20476
     20474     20472     20475     20477     20474     20472     20475     20478
     20476     20475     20478     20479     20476     20475     20478     20480
     20476     20475     20478     20481     20477     20475     20478     20479
     20477     20475     20478     20480     20477     20475     20478     20481
     20482     20484     20487     20488     20482     20484     20487     20489
     20482     20484     20487     20490     20483     20482     20484     20485
     20483     20482     20484     20486     20483     20482     20484     20487
     20484     20487     20490     20491     20484     20487     20490     20492
     20484     20487     20490     20493     20485     20484     20487     20488
     20485     20484     20487     20489     20485     20484     20487     20490
     20486     20484     20487     20488     20486     20484     20487     20489
     20486     20484     20487     20490     20487     20490     20493     20494
     20487     20490     20493     20495     20487     20490     20493     20496
     20488     20487     20490     20491     20488     20487     20490     20492
     20488     20487     20490     20493     20489     20487     20490     20491
     20489     20487     20490     20492     20489     20487     20490     20493
     20490     20493     20496     20497     20490     20493     20496     20498
     20490     20493     20496     20499     20491     20490     20493     20494
     20491     20490     20493     20495     20491     20490     20493     20496
     20492     20490     20493     20494     20492     20490     20493     20495
     20492     20490     20493     20496     20493     20496     20499     20500
     20493     20496     20499     20501     20493     20496     20499     20502
     20494     20493     20496     20497     20494     20493     20496     20498
     20494     20493     20496     20499     20495     20493     20496     20497
     20495     20493     20496     20498     20495     20493     20496     20499
     20496     20499     20502     20503     20496     20499     20502     20504
     20496     20499     20502     20505     20497     20496     20499     20500
     20497     20496     20499     20501     20497     20496     20499     20502
     20498     20496     20499     20500     20498     20496     20499     20501
     20498     20496     20499     20502     20499     20502     20505     20506
     20499     20502     20505     20507     20500     20499     20502     20503
     20500     20499     20502     20504     20500     20499     20502     20505
     20501     20499     20502     20503     20501     20499     20502     20504
     20501     20499     20502     20505     20502     20505     20507     20508
     20502     20505     20507     20509     20503     20502     20505     20506
     20503     20502     20505     20507     20504     20502     20505     20506
     20504     20502     20505     20507     20505     20507     20509     20510
     20505     20507     20509     20511     20505     20507     20509     20512
     20506     20505     20507     20508     20506     20505     20507     20509
     20507     20509     20512     20513     20507     20509     20512     20514
     20507     20509     20512     20515     20508     20507     20509     20510
     20508     20507     20509     20511     20508     20507     20509     20512
     20509     20512     20515     20516     20509     20512     20515     20517
     20509     20512     20515     20518     20510     20509     20512     20513
     20510     20509     20512     20514     20510     20509     20512     20515
     20511     20509     20512     20513     20511     20509     20512     20514
     20511     20509     20512     20515     20512     20515     20518     20519
     20512     20515     20518     20520     20512     20515     20518     20521
     20513     20512     20515     20516     20513     20512     20515     20517
     20513     20512     20515     20518     20514     20512     20515     20516
     20514     20512     20515     20517     20514     20512     20515     20518
     20515     20518     20521     20522     20515     20518     20521     20523
     20515     20518     20521     20524     20516     20515     20518     20519
     20516     20515     20518     20520     20516     20515     20518     20521
     20517     20515     20518     20519     20517     20515     20518     20520
     20517     20515     20518     20521     20518     20521     20524     20525
     20518     20521     20524     20526     20518     20521     20524     20527
     20519     20518     20521     20522     20519     20518     20521     20523
     20519     20518     20521     20524     20520     20518     20521     20522
     20520     20518     20521     20523     20520     20518     20521     20524
     20521     20524     20527     20528     20521     20524     20527     20529
     20521     20524     20527     20530     20522     20521     20524     20525
     20522     20521     20524     20526     20522     20521     20524     20527
     20523     20521     20524     20525     20523     20521     20524     20526
     20523     20521     20524     20527     20524     20527     20530     20531
     20524     20527     20530     20532     20524     20527     20530     20533
     20525     20524     20527     20528     20525     20524     20527     20529
     20525     20524     20527     20530     20526     20524     20527     20528
     20526     20524     20527     20529     20526     20524     20527     20530
     20528     20527     20530     20531     20528     20527     20530     20532
     20528     20527     20530     20533     20529     20527     20530     20531
     20529     20527     20530     20532     20529     20527     20530     20533
     20534     20538     20541     20542     20534     20538     20541     20572
     20534     20580     20577     20572     20534     20580     20577     20578
     20534     20580     20577     20579     20535     20534     20536     20537
     20535     20534     20538     20539     20535     20534     20538     20540
     20535     20534     20538     20541     20535     20534     20580     20577
     20535     20534     20580     20581     20535     20534     20580     20582
     20536     20534     20538     20539     20536     20534     20538     20540
     20536     20534     20538     20541     20536     20534     20580     20577
     20536     20534     20580     20581     20536     20534     20580     20582
     20537     20536     20534     20538     20537     20536     20534     20580
     20538     20534     20580     20577     20538     20534     20580     20581
     20538     20534     20580     20582     20538     20541     20542     20543
     20538     20541     20542     20544     20538     20541     20572     20570
     20538     20541     20572     20573     20538     20541     20572     20577
     20539     20538     20534     20580     20539     20538     20541     20542
     20539     20538     20541     20572     20540     20538     20534     20580
     20540     20538     20541     20542     20540     20538     20541     20572
     20541     20538     20534     20580     20541     20542     20544     20545
     20541     20542     20544     20546     20541     20542     20544     20547
     20541     20572     20570     20547     20541     20572     20570     20567
     20541     20572     20570     20571     20541     20572     20573     20574
     20541     20572     20573     20575     20541     20572     20573     20576
     20541     20572     20577     20578     20541     20572     20577     20579
     20541     20572     20577     20580     20542     20541     20572     20570
     20542     20541     20572     20573     20542     20541     20572     20577
     20542     20544     20547     20548     20542     20544     20547     20549
     20542     20544     20547     20570     20543     20542     20541     20572
     20543     20542     20544     20545     20543     20542     20544     20546
     20543     20542     20544     20547     20544     20542     20541     20572
     20544     20547     20549     20550     20544     20547     20549     20551
     20544     20547     20549     20559     20544     20547     20570     20567
     20544     20547     20570     20571     20544     20547     20570     20572
     20545     20544     20547     20548     20545     20544     20547     20549
     20545     20544     20547     20570     20546     20544     20547     20548
     20546     20544     20547     20549     20546     20544     20547     20570
     20547     20549     20551     20552     20547     20549     20551     20553
     20547     20549     20551     20554     20547     20549     20559     20557
     20547     20549     20559     20560     20547     20549     20559     20564
     20547     20570     20567     20564     20547     20570     20567     20568
     20547     20570     20567     20569     20547     20570     20572     20573
     20547     20570     20572     20577     20548     20547     20549     20550
     20548     20547     20549     20551     20548     20547     20549     20559
     20548     20547     20570     20567     20548     20547     20570     20571
     20548     20547     20570     20572     20549     20547     20570     20567
     20549     20547     20570     20571     20549     20547     20570     20572
     20549     20551     20554     20555     20549     20551     20554     20556
     20549     20551     20554     20557     20549     20559     20557     20554
     20549     20559     20557     20558     20549     20559     20557     20583
     20549     20559     20560     20561     20549     20559     20560     20562
     20549     20559     20560     20563     20549     20559     20564     20565
     20549     20559     20564     20566     20549     20559     20564     20567
     20550     20549     20547     20570     20550     20549     20551     20552
     20550     20549     20551     20553     20550     20549     20551     20554
     20550     20549     20559     20557     20550     20549     20559     20560
     20550     20549     20559     20564     20551     20549     20547     20570
     20551     20549     20559     20557     20551     20549     20559     20560
     20551     20549     20559     20564     20551     20554     20557     20558
     20551     20554     20557     20559     20551     20554     20557     20583
     20552     20551     20549     20559     20552     20551     20554     20555
     20552     20551     20554     20556     20552     20551     20554     20557
     20553     20551     20549     20559     20553     20551     20554     20555
     20553     20551     20554     20556     20553     20551     20554     20557
     20554     20551     20549     20559     20554     20557     20559     20560
     20554     20557     20559     20564     20554     20557     20583     20584
     20554     20557     20583     20585     20554     20557     20583     20589
     20555     20554     20557     20558     20555     20554     20557     20559
     20555     20554     20557     20583     20556     20554     20557     20558
     20556     20554     20557     20559     20556     20554     20557     20583
     20557     20559     20560     20561     20557     20559     20560     20562
     20557     20559     20560     20563     20557     20559     20564     20565
     20557     20559     20564     20566     20557     20559     20564     20567
     20557     20583     20585     20586     20557     20583     20585     20587
     20557     20583     20585     20588     20557     20583     20589     20590
     20557     20583     20589     20591     20557     20583     20589     20592
     20558     20557     20559     20560     20558     20557     20559     20564
     20558     20557     20583     20584     20558     20557     20583     20585
     20558     20557     20583     20589     20559     20549     20547     20570
     20559     20557     20583     20584     20559     20557     20583     20585
     20559     20557     20583     20589     20559     20564     20567     20568
     20559     20564     20567     20569     20559     20564     20567     20570
     20560     20559     20557     20583     20560     20559     20564     20565
     20560     20559     20564     20566     20560     20559     20564     20567
     20561     20560     20559     20564     20562     20560     20559     20564
     20563     20560     20559     20564     20564     20559     20557     20583
     20564     20567     20570     20571     20564     20567     20570     20572
     20565     20564     20567     20568     20565     20564     20567     20569
     20565     20564     20567     20570     20566     20564     20567     20568
     20566     20564     20567     20569     20566     20564     20567     20570
     20567     20570     20572     20573     20567     20570     20572     20577
     20568     20567     20570     20571     20568     20567     20570     20572
     20569     20567     20570     20571     20569     20567     20570     20572
     20570     20572     20573     20574     20570     20572     20573     20575
     20570     20572     20573     20576     20570     20572     20577     20578
     20570     20572     20577     20579     20570     20572     20577     20580
     20571     20570     20572     20573     20571     20570     20572     20577
     20572     20577     20580     20581     20572     20577     20580     20582
     20573     20572     20577     20578     20573     20572     20577     20579
     20573     20572     20577     20580     20574     20573     20572     20577
     20575     20573     20572     20577     20576     20573     20572     20577
     20578     20577     20580     20581     20578     20577     20580     20582
     20579     20577     20580     20581     20579     20577     20580     20582
     20583     20589     20592     20593     20583     20589     20592     20594
     20583     20589     20592     20595     20584     20583     20585     20586
     20584     20583     20585     20587     20584     20583     20585     20588
     20584     20583     20589     20590     20584     20583     20589     20591
     20584     20583     20589     20592     20585     20583     20589     20590
     20585     20583     20589     20591     20585     20583     20589     20592
     20586     20585     20583     20589     20587     20585     20583     20589
     20588     20585     20583     20589     20589     20592     20595     20596
     20589     20592     20595     20597     20589     20592     20595     20598
     20590     20589     20592     20593     20590     20589     20592     20594
     20590     20589     20592     20595     20591     20589     20592     20593
     20591     20589     20592     20594     20591     20589     20592     20595
     20592     20595     20598     20599     20592     20595     20598     20600
     20592     20595     20598     20604     20593     20592     20595     20596
     20593     20592     20595     20597     20593     20592     20595     20598
     20594     20592     20595     20596     20594     20592     20595     20597
     20594     20592     20595     20598     20595     20598     20600     20601
     20595     20598     20600     20602     20595     20598     20600     20603
     20595     20598     20604     20605     20595     20598     20604     20606
     20595     20598     20604     20607     20596     20595     20598     20599
     20596     20595     20598     20600     20596     20595     20598     20604
     20597     20595     20598     20599     20597     20595     20598     20600
     20597     20595     20598     20604     20599     20598     20600     20601
     20599     20598     20600     20602     20599     20598     20600     20603
     20599     20598     20604     20605     20599     20598     20604     20606
     20599     20598     20604     20607     20600     20598     20604     20605
     20600     20598     20604     20606     20600     20598     20604     20607
     20601     20600     20598     20604     20602     20600     20598     20604
     20603     20600     20598     20604     20608     20612     20614     20615
     20608     20612     20614     20616     20608     20612     20617     20618
     20608     20612     20617     20619     20608     20612     20617     20623
     20609     20608     20612     20613     20609     20608     20612     20614
     20609     20608     20612     20617     20610     20608     20612     20613
     20610     20608     20612     20614     20610     20608     20612     20617
     20611     20608     20612     20613     20611     20608     20612     20614
     20611     20608     20612     20617     20612     20617     20623     20620
     20613     20612     20614     20615     20613     20612     20614     20616
     20613     20612     20617     20618     20613     20612     20617     20619
     20613     20612     20617     20623     20614     20612     20617     20618
     20614     20612     20617     20619     20614     20612     20617     20623
     20615     20614     20612     20617     20616     20614     20612     20617
     20617     20623     20620     20621     20617     20623     20620     20622
     20617     20623     20620     20624     20618     20617     20623     20620
     20619     20617     20623     20620     20620     20624     20625     20626
     20620     20624     20625     20627     20620     20624     20625     20628
     20621     20620     20624     20625     20622     20620     20624     20625
     20623     20620     20624     20625     20624     20625     20628     20629
     20624     20625     20628     20630     20624     20625     20628     20636
     20625     20628     20630     20631     20625     20628     20636     20637
     20625     20628     20636     20638     20625     20628     20636     20639
     20626     20625     20628     20629     20626     20625     20628     20630
     20626     20625     20628     20636     20627     20625     20628     20629
     20627     20625     20628     20630     20627     20625     20628     20636
     20628     20630     20631     20632     20628     20630     20631     20633
     20628     20636     20639     20640     20629     20628     20630     20631
     20629     20628     20636     20637     20629     20628     20636     20638
     20629     20628     20636     20639     20630     20628     20636     20637
     20630     20628     20636     20638     20630     20628     20636     20639
     20630     20631     20633     20634     20630     20631     20633     20635
     20630     20631     20633     20645     20631     20630     20628     20636
     20631     20633     20645     20646     20631     20633     20645     20647
     20631     20633     20645     20648     20632     20631     20633     20634
     20632     20631     20633     20635     20632     20631     20633     20645
     20633     20645     20648     20649     20633     20645     20648     20650
     20633     20645     20648     20651     20634     20633     20645     20646
     20634     20633     20645     20647     20634     20633     20645     20648
     20635     20633     20645     20646     20635     20633     20645     20647
     20635     20633     20645     20648     20636     20639     20640     20641
     20636     20639     20640     20642     20637     20636     20639     20640
     20638     20636     20639     20640     20639     20640     20642     20643
     20639     20640     20642     20644     20639     20640     20642     20692
     20640     20642     20692     20693     20640     20642     20692     20694
     20640     20642     20692     20695     20641     20640     20642     20643
     20641     20640     20642     20644     20641     20640     20642     20692
     20642     20692     20695     20696     20642     20692     20695     20697
     20642     20692     20695     20698     20643     20642     20692     20693
     20643     20642     20692     20694     20643     20642     20692     20695
     20644     20642     20692     20693     20644     20642     20692     20694
     20644     20642     20692     20695     20645     20648     20651     20652
     20645     20648     20651     20653     20646     20645     20648     20649
     20646     20645     20648     20650     20646     20645     20648     20651
     20647     20645     20648     20649     20647     20645     20648     20650
     20647     20645     20648     20651     20648     20651     20653     20654
     20648     20651     20653     20655     20649     20648     20651     20652
     20649     20648     20651     20653     20650     20648     20651     20652
     20650     20648     20651     20653     20651     20653     20655     20656
     20651     20653     20655     20657     20651     20653     20655     20658
     20652     20651     20653     20654     20652     20651     20653     20655
     20653     20655     20658     20659     20653     20655     20658     20660
     20654     20653     20655     20656     20654     20653     20655     20657
     20654     20653     20655     20658     20655     20658     20660     20661
     20655     20658     20660     20662     20656     20655     20658     20659
     20656     20655     20658     20660     20657     20655     20658     20659
     20657     20655     20658     20660     20658     20660     20662     20663
     20658     20660     20662     20664     20658     20660     20662     20665
     20659     20658     20660     20661     20659     20658     20660     20662
     20660     20662     20665     20666     20660     20662     20665     20667
     20661     20660     20662     20663     20661     20660     20662     20664
     20661     20660     20662     20665     20662     20665     20667     20668
     20662     20665     20667     20669     20663     20662     20665     20666
     20663     20662     20665     20667     20664     20662     20665     20666
     20664     20662     20665     20667     20665     20667     20669     20670
     20665     20667     20669     20671     20665     20667     20669     20672
     20666     20665     20667     20668     20666     20665     20667     20669
     20667     20669     20672     20673     20667     20669     20672     20674
     20668     20667     20669     20670     20668     20667     20669     20671
     20668     20667     20669     20672     20669     20672     20674     20675
     20669     20672     20674     20676     20670     20669     20672     20673
     20670     20669     20672     20674     20671     20669     20672     20673
     20671     20669     20672     20674     20672     20674     20676     20677
     20672     20674     20676     20678     20672     20674     20676     20679
     20673     20672     20674     20675     20673     20672     20674     20676
     20674     20676     20679     20680     20674     20676     20679     20681
     20674     20676     20679     20682     20675     20674     20676     20677
     20675     20674     20676     20678     20675     20674     20676     20679
     20676     20679     20682     20683     20676     20679     20682     20684
     20676     20679     20682     20685     20677     20676     20679     20680
     20677     20676     20679     20681     20677     20676     20679     20682
     20678     20676     20679     20680     20678     20676     20679     20681
     20678     20676     20679     20682     20679     20682     20685     20686
     20679     20682     20685     20687     20679     20682     20685     20688
     20680     20679     20682     20683     20680     20679     20682     20684
     20680     20679     20682     20685     20681     20679     20682     20683
     20681     20679     20682     20684     20681     20679     20682     20685
     20682     20685     20688     20689     20682     20685     20688     20690
     20682     20685     20688     20691     20683     20682     20685     20686
     20683     20682     20685     20687     20683     20682     20685     20688
     20684     20682     20685     20686     20684     20682     20685     20687
     20684     20682     20685     20688     20686     20685     20688     20689
     20686     20685     20688     20690     20686     20685     20688     20691
     20687     20685     20688     20689     20687     20685     20688     20690
     20687     20685     20688     20691     20692     20695     20698     20699
     20692     20695     20698     20700     20692     20695     20698     20701
     20693     20692     20695     20696     20693     20692     20695     20697
     20693     20692     20695     20698     20694     20692     20695     20696
     20694     20692     20695     20697     20694     20692     20695     20698
     20695     20698     20701     20702     20695     20698     20701     20703
     20695     20698     20701     20704     20696     20695     20698     20699
     20696     20695     20698     20700     20696     20695     20698     20701
     20697     20695     20698     20699     20697     20695     20698     20700
     20697     20695     20698     20701     20698     20701     20704     20705
     20698     20701     20704     20706     20698     20701     20704     20707
     20699     20698     20701     20702     20699     20698     20701     20703
     20699     20698     20701     20704     20700     20698     20701     20702
     20700     20698     20701     20703     20700     20698     20701     20704
     20701     20704     20707     20708     20701     20704     20707     20709
     20701     20704     20707     20710     20702     20701     20704     20705
     20702     20701     20704     20706     20702     20701     20704     20707
     20703     20701     20704     20705     20703     20701     20704     20706
     20703     20701     20704     20707     20704     20707     20710     20711
     20704     20707     20710     20712     20704     20707     20710     20713
     20705     20704     20707     20708     20705     20704     20707     20709
     20705     20704     20707     20710     20706     20704     20707     20708
     20706     20704     20707     20709     20706     20704     20707     20710
     20707     20710     20713     20714     20707     20710     20713     20715
     20707     20710     20713     20716     20708     20707     20710     20711
     20708     20707     20710     20712     20708     20707     20710     20713
     20709     20707     20710     20711     20709     20707     20710     20712
     20709     20707     20710     20713     20710     20713     20716     20717
     20710     20713     20716     20718     20710     20713     20716     20719
     20711     20710     20713     20714     20711     20710     20713     20715
     20711     20710     20713     20716     20712     20710     20713     20714
     20712     20710     20713     20715     20712     20710     20713     20716
     20713     20716     20719     20720     20713     20716     20719     20721
     20713     20716     20719     20722     20714     20713     20716     20717
     20714     20713     20716     20718     20714     20713     20716     20719
     20715     20713     20716     20717     20715     20713     20716     20718
     20715     20713     20716     20719     20716     20719     20722     20723
     20716     20719     20722     20724     20716     20719     20722     20725
     20717     20716     20719     20720     20717     20716     20719     20721
     20717     20716     20719     20722     20718     20716     20719     20720
     20718     20716     20719     20721     20718     20716     20719     20722
     20719     20722     20725     20726     20719     20722     20725     20727
     20719     20722     20725     20728     20720     20719     20722     20723
     20720     20719     20722     20724     20720     20719     20722     20725
     20721     20719     20722     20723     20721     20719     20722     20724
     20721     20719     20722     20725     20722     20725     20728     20729
     20722     20725     20728     20730     20722     20725     20728     20731
     20723     20722     20725     20726     20723     20722     20725     20727
     20723     20722     20725     20728     20724     20722     20725     20726
     20724     20722     20725     20727     20724     20722     20725     20728
     20725     20728     20731     20732     20725     20728     20731     20733
     20725     20728     20731     20734     20726     20725     20728     20729
     20726     20725     20728     20730     20726     20725     20728     20731
     20727     20725     20728     20729     20727     20725     20728     20730
     20727     20725     20728     20731     20728     20731     20734     20735
     20728     20731     20734     20736     20728     20731     20734     20737
     20729     20728     20731     20732     20729     20728     20731     20733
     20729     20728     20731     20734     20730     20728     20731     20732
     20730     20728     20731     20733     20730     20728     20731     20734
     20731     20734     20737     20738     20731     20734     20737     20739
     20731     20734     20737     20740     20732     20731     20734     20735
     20732     20731     20734     20736     20732     20731     20734     20737
     20733     20731     20734     20735     20733     20731     20734     20736
     20733     20731     20734     20737     20735     20734     20737     20738
     20735     20734     20737     20739     20735     20734     20737     20740
     20736     20734     20737     20738     20736     20734     20737     20739
     20736     20734     20737     20740     20741     20745     20748     20749
     20741     20745     20748     20750     20741     20745     20748     20754
     20742     20741     20745     20746     20742     20741     20745     20747
     20742     20741     20745     20748     20743     20741     20745     20746
     20743     20741     20745     20747     20743     20741     20745     20748
     20744     20741     20745     20746     20744     20741     20745     20747
     20744     20741     20745     20748     20745     20748     20754     20751
     20746     20745     20748     20749     20746     20745     20748     20750
     20746     20745     20748     20754     20747     20745     20748     20749
     20747     20745     20748     20750     20747     20745     20748     20754
     20748     20754     20751     20752     20748     20754     20751     20753
     20748     20754     20751     20755     20749     20748     20754     20751
     20750     20748     20754     20751     20751     20755     20756     20757
     20751     20755     20756     20758     20751     20755     20756     20759
     20752     20751     20755     20756     20753     20751     20755     20756
     20754     20751     20755     20756     20755     20756     20759     20760
     20755     20756     20759     20761     20755     20756     20759     20767
     20756     20759     20761     20762     20756     20759     20767     20768
     20756     20759     20767     20769     20756     20759     20767     20770
     20757     20756     20759     20760     20757     20756     20759     20761
     20757     20756     20759     20767     20758     20756     20759     20760
     20758     20756     20759     20761     20758     20756     20759     20767
     20759     20761     20762     20763     20759     20761     20762     20764
     20759     20767     20770     20771     20760     20759     20761     20762
     20760     20759     20767     20768     20760     20759     20767     20769
     20760     20759     20767     20770     20761     20759     20767     20768
     20761     20759     20767     20769     20761     20759     20767     20770
     20761     20762     20764     20765     20761     20762     20764     20766
     20761     20762     20764     20776     20762     20761     20759     20767
     20762     20764     20776     20777     20762     20764     20776     20778
     20762     20764     20776     20779     20763     20762     20764     20765
     20763     20762     20764     20766     20763     20762     20764     20776
     20764     20776     20779     20780     20764     20776     20779     20781
     20764     20776     20779     20782     20765     20764     20776     20777
     20765     20764     20776     20778     20765     20764     20776     20779
     20766     20764     20776     20777     20766     20764     20776     20778
     20766     20764     20776     20779     20767     20770     20771     20772
     20767     20770     20771     20773     20768     20767     20770     20771
     20769     20767     20770     20771     20770     20771     20773     20774
     20770     20771     20773     20775     20770     20771     20773     20823
     20771     20773     20823     20824     20771     20773     20823     20825
     20771     20773     20823     20826     20772     20771     20773     20774
     20772     20771     20773     20775     20772     20771     20773     20823
     20773     20823     20826     20827     20773     20823     20826     20828
     20773     20823     20826     20829     20774     20773     20823     20824
     20774     20773     20823     20825     20774     20773     20823     20826
     20775     20773     20823     20824     20775     20773     20823     20825
     20775     20773     20823     20826     20776     20779     20782     20783
     20776     20779     20782     20784     20776     20779     20782     20785
     20777     20776     20779     20780     20777     20776     20779     20781
     20777     20776     20779     20782     20778     20776     20779     20780
     20778     20776     20779     20781     20778     20776     20779     20782
     20779     20782     20785     20786     20779     20782     20785     20787
     20779     20782     20785     20788     20780     20779     20782     20783
     20780     20779     20782     20784     20780     20779     20782     20785
     20781     20779     20782     20783     20781     20779     20782     20784
     20781     20779     20782     20785     20782     20785     20788     20789
     20782     20785     20788     20790     20782     20785     20788     20791
     20783     20782     20785     20786     20783     20782     20785     20787
     20783     20782     20785     20788     20784     20782     20785     20786
     20784     20782     20785     20787     20784     20782     20785     20788
     20785     20788     20791     20792     20785     20788     20791     20793
     20785     20788     20791     20794     20786     20785     20788     20789
     20786     20785     20788     20790     20786     20785     20788     20791
     20787     20785     20788     20789     20787     20785     20788     20790
     20787     20785     20788     20791     20788     20791     20794     20795
     20788     20791     20794     20796     20789     20788     20791     20792
     20789     20788     20791     20793     20789     20788     20791     20794
     20790     20788     20791     20792     20790     20788     20791     20793
     20790     20788     20791     20794     20791     20794     20796     20797
     20791     20794     20796     20798     20792     20791     20794     20795
     20792     20791     20794     20796     20793     20791     20794     20795
     20793     20791     20794     20796     20794     20796     20798     20799
     20794     20796     20798     20800     20794     20796     20798     20801
     20795     20794     20796     20797     20795     20794     20796     20798
     20796     20798     20801     20802     20796     20798     20801     20803
     20796     20798     20801     20804     20797     20796     20798     20799
     20797     20796     20798     20800     20797     20796     20798     20801
     20798     20801     20804     20805     20798     20801     20804     20806
     20798     20801     20804     20807     20799     20798     20801     20802
     20799     20798     20801     20803     20799     20798     20801     20804
     20800     20798     20801     20802     20800     20798     20801     20803
     20800     20798     20801     20804     20801     20804     20807     20808
     20801     20804     20807     20809     20801     20804     20807     20810
     20802     20801     20804     20805     20802     20801     20804     20806
     20802     20801     20804     20807     20803     20801     20804     20805
     20803     20801     20804     20806     20803     20801     20804     20807
     20804     20807     20810     20811     20804     20807     20810     20812
     20804     20807     20810     20813     20805     20804     20807     20808
     20805     20804     20807     20809     20805     20804     20807     20810
     20806     20804     20807     20808     20806     20804     20807     20809
     20806     20804     20807     20810     20807     20810     20813     20814
     20807     20810     20813     20815     20807     20810     20813     20816
     20808     20807     20810     20811     20808     20807     20810     20812
     20808     20807     20810     20813     20809     20807     20810     20811
     20809     20807     20810     20812     20809     20807     20810     20813
     20810     20813     20816     20817     20810     20813     20816     20818
     20810     20813     20816     20819     20811     20810     20813     20814
     20811     20810     20813     20815     20811     20810     20813     20816
     20812     20810     20813     20814     20812     20810     20813     20815
     20812     20810     20813     20816     20813     20816     20819     20820
     20813     20816     20819     20821     20813     20816     20819     20822
     20814     20813     20816     20817     20814     20813     20816     20818
     20814     20813     20816     20819     20815     20813     20816     20817
     20815     20813     20816     20818     20815     20813     20816     20819
     20817     20816     20819     20820     20817     20816     20819     20821
     20817     20816     20819     20822     20818     20816     20819     20820
     20818     20816     20819     20821     20818     20816     20819     20822
     20823     20826     20829     20830     20823     20826     20829     20831
     20823     20826     20829     20832     20824     20823     20826     20827
     20824     20823     20826     20828     20824     20823     20826     20829
     20825     20823     20826     20827     20825     20823     20826     20828
     20825     20823     20826     20829     20826     20829     20832     20833
     20826     20829     20832     20834     20826     20829     20832     20835
     20827     20826     20829     20830     20827     20826     20829     20831
     20827     20826     20829     20832     20828     20826     20829     20830
     20828     20826     20829     20831     20828     20826     20829     20832
     20829     20832     20835     20836     20829     20832     20835     20837
     20829     20832     20835     20838     20830     20829     20832     20833
     20830     20829     20832     20834     20830     20829     20832     20835
     20831     20829     20832     20833     20831     20829     20832     20834
     20831     20829     20832     20835     20832     20835     20838     20839
     20832     20835     20838     20840     20832     20835     20838     20841
     20833     20832     20835     20836     20833     20832     20835     20837
     20833     20832     20835     20838     20834     20832     20835     20836
     20834     20832     20835     20837     20834     20832     20835     20838
     20835     20838     20841     20842     20835     20838     20841     20843
     20835     20838     20841     20844     20836     20835     20838     20839
     20836     20835     20838     20840     20836     20835     20838     20841
     20837     20835     20838     20839     20837     20835     20838     20840
     20837     20835     20838     20841     20838     20841     20844     20845
     20838     20841     20844     20846     20838     20841     20844     20847
     20839     20838     20841     20842     20839     20838     20841     20843
     20839     20838     20841     20844     20840     20838     20841     20842
     20840     20838     20841     20843     20840     20838     20841     20844
     20841     20844     20847     20848     20841     20844     20847     20849
     20841     20844     20847     20850     20842     20841     20844     20845
     20842     20841     20844     20846     20842     20841     20844     20847
     20843     20841     20844     20845     20843     20841     20844     20846
     20843     20841     20844     20847     20844     20847     20850     20851
     20844     20847     20850     20852     20844     20847     20850     20853
     20845     20844     20847     20848     20845     20844     20847     20849
     20845     20844     20847     20850     20846     20844     20847     20848
     20846     20844     20847     20849     20846     20844     20847     20850
     20847     20850     20853     20854     20847     20850     20853     20855
     20847     20850     20853     20856     20848     20847     20850     20851
     20848     20847     20850     20852     20848     20847     20850     20853
     20849     20847     20850     20851     20849     20847     20850     20852
     20849     20847     20850     20853     20850     20853     20856     20857
     20850     20853     20856     20858     20850     20853     20856     20859
     20851     20850     20853     20854     20851     20850     20853     20855
     20851     20850     20853     20856     20852     20850     20853     20854
     20852     20850     20853     20855     20852     20850     20853     20856
     20853     20856     20859     20860     20853     20856     20859     20861
     20853     20856     20859     20862     20854     20853     20856     20857
     20854     20853     20856     20858     20854     20853     20856     20859
     20855     20853     20856     20857     20855     20853     20856     20858
     20855     20853     20856     20859     20856     20859     20862     20863
     20856     20859     20862     20864     20856     20859     20862     20865
     20857     20856     20859     20860     20857     20856     20859     20861
     20857     20856     20859     20862     20858     20856     20859     20860
     20858     20856     20859     20861     20858     20856     20859     20862
     20859     20862     20865     20866     20859     20862     20865     20867
     20859     20862     20865     20868     20860     20859     20862     20863
     20860     20859     20862     20864     20860     20859     20862     20865
     20861     20859     20862     20863     20861     20859     20862     20864
     20861     20859     20862     20865     20862     20865     20868     20869
     20862     20865     20868     20870     20862     20865     20868     20871
     20863     20862     20865     20866     20863     20862     20865     20867
     20863     20862     20865     20868     20864     20862     20865     20866
     20864     20862     20865     20867     20864     20862     20865     20868
     20866     20865     20868     20869     20866     20865     20868     20870
     20866     20865     20868     20871     20867     20865     20868     20869
     20867     20865     20868     20870     20867     20865     20868     20871
     20872     20873     20888     20889     20872     20873     20888     20890
     20872     20873     20888     20894     20873     20872     20876     20877
     20873     20872     20876     20878     20873     20872     20876     20879
     20873     20872     20880     20881     20873     20872     20880     20882
     20873     20872     20880     20883     20873     20872     20884     20885
     20873     20872     20884     20886     20873     20872     20884     20887
     20873     20888     20894     20891     20874     20873     20872     20876
     20874     20873     20872     20880     20874     20873     20872     20884
     20874     20873     20888     20889     20874     20873     20888     20890
     20874     20873     20888     20894     20875     20873     20872     20876
     20875     20873     20872     20880     20875     20873     20872     20884
     20875     20873     20888     20889     20875     20873     20888     20890
     20875     20873     20888     20894     20876     20872     20873     20888
     20876     20872     20880     20881     20876     20872     20880     20882
     20876     20872     20880     20883     20876     20872     20884     20885
     20876     20872     20884     20886     20876     20872     20884     20887
     20877     20876     20872     20880     20877     20876     20872     20884
     20878     20876     20872     20880     20878     20876     20872     20884
     20879     20876     20872     20880     20879     20876     20872     20884
     20880     20872     20873     20888     20880     20872     20884     20885
     20880     20872     20884     20886     20880     20872     20884     20887
     20881     20880     20872     20884     20882     20880     20872     20884
     20883     20880     20872     20884     20884     20872     20873     20888
     20888     20894     20891     20892     20888     20894     20891     20893
     20888     20894     20891     20895     20889     20888     20894     20891
     20890     20888     20894     20891     20891     20895     20896     20897
     20891     20895     20896     20898     20891     20895     20896     20899
     20892     20891     20895     20896     20893     20891     20895     20896
     20894     20891     20895     20896     20895     20896     20899     20900
     20895     20896     20899     20901     20895     20896     20899     20907
     20896     20899     20901     20902     20896     20899     20907     20908
     20896     20899     20907     20909     20896     20899     20907     20910
     20897     20896     20899     20900     20897     20896     20899     20901
     20897     20896     20899     20907     20898     20896     20899     20900
     20898     20896     20899     20901     20898     20896     20899     20907
     20899     20901     20902     20903     20899     20901     20902     20904
     20899     20907     20910     20911     20900     20899     20901     20902
     20900     20899     20907     20908     20900     20899     20907     20909
     20900     20899     20907     20910     20901     20899     20907     20908
     20901     20899     20907     20909     20901     20899     20907     20910
     20901     20902     20904     20905     20901     20902     20904     20906
     20901     20902     20904     20916     20902     20901     20899     20907
     20902     20904     20916     20917     20902     20904     20916     20918
     20902     20904     20916     20919     20903     20902     20904     20905
     20903     20902     20904     20906     20903     20902     20904     20916
     20904     20916     20919     20920     20904     20916     20919     20921
     20904     20916     20919     20922     20905     20904     20916     20917
     20905     20904     20916     20918     20905     20904     20916     20919
     20906     20904     20916     20917     20906     20904     20916     20918
     20906     20904     20916     20919     20907     20910     20911     20912
     20907     20910     20911     20913     20908     20907     20910     20911
     20909     20907     20910     20911     20910     20911     20913     20914
     20910     20911     20913     20915     20910     20911     20913     20963
     20911     20913     20963     20964     20911     20913     20963     20965
     20911     20913     20963     20966     20912     20911     20913     20914
     20912     20911     20913     20915     20912     20911     20913     20963
     20913     20963     20966     20967     20913     20963     20966     20968
     20913     20963     20966     20969     20914     20913     20963     20964
     20914     20913     20963     20965     20914     20913     20963     20966
     20915     20913     20963     20964     20915     20913     20963     20965
     20915     20913     20963     20966     20916     20919     20922     20923
     20916     20919     20922     20924     20917     20916     20919     20920
     20917     20916     20919     20921     20917     20916     20919     20922
     20918     20916     20919     20920     20918     20916     20919     20921
     20918     20916     20919     20922     20919     20922     20924     20925
     20919     20922     20924     20926     20920     20919     20922     20923
     20920     20919     20922     20924     20921     20919     20922     20923
     20921     20919     20922     20924     20922     20924     20926     20927
     20922     20924     20926     20928     20922     20924     20926     20929
     20923     20922     20924     20925     20923     20922     20924     20926
     20924     20926     20929     20930     20924     20926     20929     20931
     20925     20924     20926     20927     20925     20924     20926     20928
     20925     20924     20926     20929     20926     20929     20931     20932
     20926     20929     20931     20933     20927     20926     20929     20930
     20927     20926     20929     20931     20928     20926     20929     20930
     20928     20926     20929     20931     20929     20931     20933     20934
     20929     20931     20933     20935     20929     20931     20933     20936
     20930     20929     20931     20932     20930     20929     20931     20933
     20931     20933     20936     20937     20931     20933     20936     20938
     20932     20931     20933     20934     20932     20931     20933     20935
     20932     20931     20933     20936     20933     20936     20938     20939
     20933     20936     20938     20940     20934     20933     20936     20937
     20934     20933     20936     20938     20935     20933     20936     20937
     20935     20933     20936     20938     20936     20938     20940     20941
     20936     20938     20940     20942     20936     20938     20940     20943
     20937     20936     20938     20939     20937     20936     20938     20940
     20938     20940     20943     20944     20938     20940     20943     20945
     20939     20938     20940     20941     20939     20938     20940     20942
     20939     20938     20940     20943     20940     20943     20945     20946
     20940     20943     20945     20947     20941     20940     20943     20944
     20941     20940     20943     20945     20942     20940     20943     20944
     20942     20940     20943     20945     20943     20945     20947     20948
     20943     20945     20947     20949     20943     20945     20947     20950
     20944     20943     20945     20946     20944     20943     20945     20947
     20945     20947     20950     20951     20945     20947     20950     20952
     20945     20947     20950     20953     20946     20945     20947     20948
     20946     20945     20947     20949     20946     20945     20947     20950
     20947     20950     20953     20954     20947     20950     20953     20955
     20947     20950     20953     20956     20948     20947     20950     20951
     20948     20947     20950     20952     20948     20947     20950     20953
     20949     20947     20950     20951     20949     20947     20950     20952
     20949     20947     20950     20953     20950     20953     20956     20957
     20950     20953     20956     20958     20950     20953     20956     20959
     20951     20950     20953     20954     20951     20950     20953     20955
     20951     20950     20953     20956     20952     20950     20953     20954
     20952     20950     20953     20955     20952     20950     20953     20956
     20953     20956     20959     20960     20953     20956     20959     20961
     20953     20956     20959     20962     20954     20953     20956     20957
     20954     20953     20956     20958     20954     20953     20956     20959
     20955     20953     20956     20957     20955     20953     20956     20958
     20955     20953     20956     20959     20957     20956     20959     20960
     20957     20956     20959     20961     20957     20956     20959     20962
     20958     20956     20959     20960     20958     20956     20959     20961
     20958     20956     20959     20962     20963     20966     20969     20970
     20963     20966     20969     20971     20963     20966     20969     20972
     20964     20963     20966     20967     20964     20963     20966     20968
     20964     20963     20966     20969     20965     20963     20966     20967
     20965     20963     20966     20968     20965     20963     20966     20969
     20966     20969     20972     20973     20966     20969     20972     20974
     20966     20969     20972     20975     20967     20966     20969     20970
     20967     20966     20969     20971     20967     20966     20969     20972
     20968     20966     20969     20970     20968     20966     20969     20971
     20968     20966     20969     20972     20969     20972     20975     20976
     20969     20972     20975     20977     20969     20972     20975     20978
     20970     20969     20972     20973     20970     20969     20972     20974
     20970     20969     20972     20975     20971     20969     20972     20973
     20971     20969     20972     20974     20971     20969     20972     20975
     20972     20975     20978     20979     20972     20975     20978     20980
     20972     20975     20978     20981     20973     20972     20975     20976
     20973     20972     20975     20977     20973     20972     20975     20978
     20974     20972     20975     20976     20974     20972     20975     20977
     20974     20972     20975     20978     20975     20978     20981     20982
     20975     20978     20981     20983     20975     20978     20981     20984
     20976     20975     20978     20979     20976     20975     20978     20980
     20976     20975     20978     20981     20977     20975     20978     20979
     20977     20975     20978     20980     20977     20975     20978     20981
     20978     20981     20984     20985     20978     20981     20984     20986
     20978     20981     20984     20987     20979     20978     20981     20982
     20979     20978     20981     20983     20979     20978     20981     20984
     20980     20978     20981     20982     20980     20978     20981     20983
     20980     20978     20981     20984     20981     20984     20987     20988
     20981     20984     20987     20989     20981     20984     20987     20990
     20982     20981     20984     20985     20982     20981     20984     20986
     20982     20981     20984     20987     20983     20981     20984     20985
     20983     20981     20984     20986     20983     20981     20984     20987
     20984     20987     20990     20991     20984     20987     20990     20992
     20984     20987     20990     20993     20985     20984     20987     20988
     20985     20984     20987     20989     20985     20984     20987     20990
     20986     20984     20987     20988     20986     20984     20987     20989
     20986     20984     20987     20990     20987     20990     20993     20994
     20987     20990     20993     20995     20987     20990     20993     20996
     20988     20987     20990     20991     20988     20987     20990     20992
     20988     20987     20990     20993     20989     20987     20990     20991
     20989     20987     20990     20992     20989     20987     20990     20993
     20990     20993     20996     20997     20990     20993     20996     20998
     20990     20993     20996     20999     20991     20990     20993     20994
     20991     20990     20993     20995     20991     20990     20993     20996
     20992     20990     20993     20994     20992     20990     20993     20995
     20992     20990     20993     20996     20993     20996     20999     21000
     20993     20996     20999     21001     20993     20996     20999     21002
     20994     20993     20996     20997     20994     20993     20996     20998
     20994     20993     20996     20999     20995     20993     20996     20997
     20995     20993     20996     20998     20995     20993     20996     20999
     20996     20999     21002     21003     20996     20999     21002     21004
     20996     20999     21002     21005     20997     20996     20999     21000
     20997     20996     20999     21001     20997     20996     20999     21002
     20998     20996     20999     21000     20998     20996     20999     21001
     20998     20996     20999     21002     20999     21002     21005     21006
     20999     21002     21005     21007     20999     21002     21005     21008
     21000     20999     21002     21003     21000     20999     21002     21004
     21000     20999     21002     21005     21001     20999     21002     21003
     21001     20999     21002     21004     21001     20999     21002     21005
     21002     21005     21008     21009     21002     21005     21008     21010
     21002     21005     21008     21011     21003     21002     21005     21006
     21003     21002     21005     21007     21003     21002     21005     21008
     21004     21002     21005     21006     21004     21002     21005     21007
     21004     21002     21005     21008     21006     21005     21008     21009
     21006     21005     21008     21010     21006     21005     21008     21011
     21007     21005     21008     21009     21007     21005     21008     21010
     21007     21005     21008     21011     21012     21016     21019     21020
     21012     21016     21019     21050     21012     21058     21055     21050
     21012     21058     21055     21056     21012     21058     21055     21057
     21013     21012     21014     21015     21013     21012     21016     21017
     21013     21012     21016     21018     21013     21012     21016     21019
     21013     21012     21058     21055     21013     21012     21058     21059
     21013     21012     21058     21060     21014     21012     21016     21017
     21014     21012     21016     21018     21014     21012     21016     21019
     21014     21012     21058     21055     21014     21012     21058     21059
     21014     21012     21058     21060     21015     21014     21012     21016
     21015     21014     21012     21058     21016     21012     21058     21055
     21016     21012     21058     21059     21016     21012     21058     21060
     21016     21019     21020     21021     21016     21019     21020     21022
     21016     21019     21050     21048     21016     21019     21050     21051
     21016     21019     21050     21055     21017     21016     21012     21058
     21017     21016     21019     21020     21017     21016     21019     21050
     21018     21016     21012     21058     21018     21016     21019     21020
     21018     21016     21019     21050     21019     21016     21012     21058
     21019     21020     21022     21023     21019     21020     21022     21024
     21019     21020     21022     21025     21019     21050     21048     21025
     21019     21050     21048     21045     21019     21050     21048     21049
     21019     21050     21051     21052     21019     21050     21051     21053
     21019     21050     21051     21054     21019     21050     21055     21056
     21019     21050     21055     21057     21019     21050     21055     21058
     21020     21019     21050     21048     21020     21019     21050     21051
     21020     21019     21050     21055     21020     21022     21025     21026
     21020     21022     21025     21027     21020     21022     21025     21048
     21021     21020     21019     21050     21021     21020     21022     21023
     21021     21020     21022     21024     21021     21020     21022     21025
     21022     21020     21019     21050     21022     21025     21027     21028
     21022     21025     21027     21029     21022     21025     21027     21037
     21022     21025     21048     21045     21022     21025     21048     21049
     21022     21025     21048     21050     21023     21022     21025     21026
     21023     21022     21025     21027     21023     21022     21025     21048
     21024     21022     21025     21026     21024     21022     21025     21027
     21024     21022     21025     21048     21025     21027     21029     21030
     21025     21027     21029     21031     21025     21027     21029     21032
     21025     21027     21037     21035     21025     21027     21037     21038
     21025     21027     21037     21042     21025     21048     21045     21042
     21025     21048     21045     21046     21025     21048     21045     21047
     21025     21048     21050     21051     21025     21048     21050     21055
     21026     21025     21027     21028     21026     21025     21027     21029
     21026     21025     21027     21037     21026     21025     21048     21045
     21026     21025     21048     21049     21026     21025     21048     21050
     21027     21025     21048     21045     21027     21025     21048     21049
     21027     21025     21048     21050     21027     21029     21032     21033
     21027     21029     21032     21034     21027     21029     21032     21035
     21027     21037     21035     21032     21027     21037     21035     21036
     21027     21037     21035     21061     21027     21037     21038     21039
     21027     21037     21038     21040     21027     21037     21038     21041
     21027     21037     21042     21043     21027     21037     21042     21044
     21027     21037     21042     21045     21028     21027     21025     21048
     21028     21027     21029     21030     21028     21027     21029     21031
     21028     21027     21029     21032     21028     21027     21037     21035
     21028     21027     21037     21038     21028     21027     21037     21042
     21029     21027     21025     21048     21029     21027     21037     21035
     21029     21027     21037     21038     21029     21027     21037     21042
     21029     21032     21035     21036     21029     21032     21035     21037
     21029     21032     21035     21061     21030     21029     21027     21037
     21030     21029     21032     21033     21030     21029     21032     21034
     21030     21029     21032     21035     21031     21029     21027     21037
     21031     21029     21032     21033     21031     21029     21032     21034
     21031     21029     21032     21035     21032     21029     21027     21037
     21032     21035     21037     21038     21032     21035     21037     21042
     21032     21035     21061     21062     21032     21035     21061     21063
     21032     21035     21061     21067     21033     21032     21035     21036
     21033     21032     21035     21037     21033     21032     21035     21061
     21034     21032     21035     21036     21034     21032     21035     21037
     21034     21032     21035     21061     21035     21037     21038     21039
     21035     21037     21038     21040     21035     21037     21038     21041
     21035     21037     21042     21043     21035     21037     21042     21044
     21035     21037     21042     21045     21035     21061     21063     21064
     21035     21061     21063     21065     21035     21061     21063     21066
     21035     21061     21067     21068     21035     21061     21067     21069
     21035     21061     21067     21070     21036     21035     21037     21038
     21036     21035     21037     21042     21036     21035     21061     21062
     21036     21035     21061     21063     21036     21035     21061     21067
     21037     21027     21025     21048     21037     21035     21061     21062
     21037     21035     21061     21063     21037     21035     21061     21067
     21037     21042     21045     21046     21037     21042     21045     21047
     21037     21042     21045     21048     21038     21037     21035     21061
     21038     21037     21042     21043     21038     21037     21042     21044
     21038     21037     21042     21045     21039     21038     21037     21042
     21040     21038     21037     21042     21041     21038     21037     21042
     21042     21037     21035     21061     21042     21045     21048     21049
     21042     21045     21048     21050     21043     21042     21045     21046
     21043     21042     21045     21047     21043     21042     21045     21048
     21044     21042     21045     21046     21044     21042     21045     21047
     21044     21042     21045     21048     21045     21048     21050     21051
     21045     21048     21050     21055     21046     21045     21048     21049
     21046     21045     21048     21050     21047     21045     21048     21049
     21047     21045     21048     21050     21048     21050     21051     21052
     21048     21050     21051     21053     21048     21050     21051     21054
     21048     21050     21055     21056     21048     21050     21055     21057
     21048     21050     21055     21058     21049     21048     21050     21051
     21049     21048     21050     21055     21050     21055     21058     21059
     21050     21055     21058     21060     21051     21050     21055     21056
     21051     21050     21055     21057     21051     21050     21055     21058
     21052     21051     21050     21055     21053     21051     21050     21055
     21054     21051     21050     21055     21056     21055     21058     21059
     21056     21055     21058     21060     21057     21055     21058     21059
     21057     21055     21058     21060     21061     21067     21070     21071
     21061     21067     21070     21072     21061     21067     21070     21073
     21062     21061     21063     21064     21062     21061     21063     21065
     21062     21061     21063     21066     21062     21061     21067     21068
     21062     21061     21067     21069     21062     21061     21067     21070
     21063     21061     21067     21068     21063     21061     21067     21069
     21063     21061     21067     21070     21064     21063     21061     21067
     21065     21063     21061     21067     21066     21063     21061     21067
     21067     21070     21073     21074     21067     21070     21073     21075
     21067     21070     21073     21076     21068     21067     21070     21071
     21068     21067     21070     21072     21068     21067     21070     21073
     21069     21067     21070     21071     21069     21067     21070     21072
     21069     21067     21070     21073     21070     21073     21076     21077
     21070     21073     21076     21078     21070     21073     21076     21082
     21071     21070     21073     21074     21071     21070     21073     21075
     21071     21070     21073     21076     21072     21070     21073     21074
     21072     21070     21073     21075     21072     21070     21073     21076
     21073     21076     21078     21079     21073     21076     21078     21080
     21073     21076     21078     21081     21073     21076     21082     21083
     21073     21076     21082     21084     21073     21076     21082     21085
     21074     21073     21076     21077     21074     21073     21076     21078
     21074     21073     21076     21082     21075     21073     21076     21077
     21075     21073     21076     21078     21075     21073     21076     21082
     21077     21076     21078     21079     21077     21076     21078     21080
     21077     21076     21078     21081     21077     21076     21082     21083
     21077     21076     21082     21084     21077     21076     21082     21085
     21078     21076     21082     21083     21078     21076     21082     21084
     21078     21076     21082     21085     21079     21078     21076     21082
     21080     21078     21076     21082     21081     21078     21076     21082
     21086     21090     21092     21093     21086     21090     21092     21094
     21086     21090     21095     21096     21086     21090     21095     21097
     21086     21090     21095     21101     21087     21086     21090     21091
     21087     21086     21090     21092     21087     21086     21090     21095
     21088     21086     21090     21091     21088     21086     21090     21092
     21088     21086     21090     21095     21089     21086     21090     21091
     21089     21086     21090     21092     21089     21086     21090     21095
     21090     21095     21101     21098     21091     21090     21092     21093
     21091     21090     21092     21094     21091     21090     21095     21096
     21091     21090     21095     21097     21091     21090     21095     21101
     21092     21090     21095     21096     21092     21090     21095     21097
     21092     21090     21095     21101     21093     21092     21090     21095
     21094     21092     21090     21095     21095     21101     21098     21099
     21095     21101     21098     21100     21095     21101     21098     21102
     21096     21095     21101     21098     21097     21095     21101     21098
     21098     21102     21103     21104     21098     21102     21103     21105
     21098     21102     21103     21106     21099     21098     21102     21103
     21100     21098     21102     21103     21101     21098     21102     21103
     21102     21103     21106     21107     21102     21103     21106     21108
     21102     21103     21106     21114     21103     21106     21108     21109
     21103     21106     21114     21115     21103     21106     21114     21116
     21103     21106     21114     21117     21104     21103     21106     21107
     21104     21103     21106     21108     21104     21103     21106     21114
     21105     21103     21106     21107     21105     21103     21106     21108
     21105     21103     21106     21114     21106     21108     21109     21110
     21106     21108     21109     21111     21106     21114     21117     21118
     21107     21106     21108     21109     21107     21106     21114     21115
     21107     21106     21114     21116     21107     21106     21114     21117
     21108     21106     21114     21115     21108     21106     21114     21116
     21108     21106     21114     21117     21108     21109     21111     21112
     21108     21109     21111     21113     21108     21109     21111     21123
     21109     21108     21106     21114     21109     21111     21123     21124
     21109     21111     21123     21125     21109     21111     21123     21126
     21110     21109     21111     21112     21110     21109     21111     21113
     21110     21109     21111     21123     21111     21123     21126     21127
     21111     21123     21126     21128     21111     21123     21126     21129
     21112     21111     21123     21124     21112     21111     21123     21125
     21112     21111     21123     21126     21113     21111     21123     21124
     21113     21111     21123     21125     21113     21111     21123     21126
     21114     21117     21118     21119     21114     21117     21118     21120
     21115     21114     21117     21118     21116     21114     21117     21118
     21117     21118     21120     21121     21117     21118     21120     21122
     21117     21118     21120     21170     21118     21120     21170     21171
     21118     21120     21170     21172     21118     21120     21170     21173
     21119     21118     21120     21121     21119     21118     21120     21122
     21119     21118     21120     21170     21120     21170     21173     21174
     21120     21170     21173     21175     21120     21170     21173     21176
     21121     21120     21170     21171     21121     21120     21170     21172
     21121     21120     21170     21173     21122     21120     21170     21171
     21122     21120     21170     21172     21122     21120     21170     21173
     21123     21126     21129     21130     21123     21126     21129     21131
     21124     21123     21126     21127     21124     21123     21126     21128
     21124     21123     21126     21129     21125     21123     21126     21127
     21125     21123     21126     21128     21125     21123     21126     21129
     21126     21129     21131     21132     21126     21129     21131     21133
     21127     21126     21129     21130     21127     21126     21129     21131
     21128     21126     21129     21130     21128     21126     21129     21131
     21129     21131     21133     21134     21129     21131     21133     21135
     21129     21131     21133     21136     21130     21129     21131     21132
     21130     21129     21131     21133     21131     21133     21136     21137
     21131     21133     21136     21138     21132     21131     21133     21134
     21132     21131     21133     21135     21132     21131     21133     21136
     21133     21136     21138     21139     21133     21136     21138     21140
     21134     21133     21136     21137     21134     21133     21136     21138
     21135     21133     21136     21137     21135     21133     21136     21138
     21136     21138     21140     21141     21136     21138     21140     21142
     21136     21138     21140     21143     21137     21136     21138     21139
     21137     21136     21138     21140     21138     21140     21143     21144
     21138     21140     21143     21145     21139     21138     21140     21141
     21139     21138     21140     21142     21139     21138     21140     21143
     21140     21143     21145     21146     21140     21143     21145     21147
     21141     21140     21143     21144     21141     21140     21143     21145
     21142     21140     21143     21144     21142     21140     21143     21145
     21143     21145     21147     21148     21143     21145     21147     21149
     21143     21145     21147     21150     21144     21143     21145     21146
     21144     21143     21145     21147     21145     21147     21150     21151
     21145     21147     21150     21152     21146     21145     21147     21148
     21146     21145     21147     21149     21146     21145     21147     21150
     21147     21150     21152     21153     21147     21150     21152     21154
     21148     21147     21150     21151     21148     21147     21150     21152
     21149     21147     21150     21151     21149     21147     21150     21152
     21150     21152     21154     21155     21150     21152     21154     21156
     21150     21152     21154     21157     21151     21150     21152     21153
     21151     21150     21152     21154     21152     21154     21157     21158
     21152     21154     21157     21159     21152     21154     21157     21160
     21153     21152     21154     21155     21153     21152     21154     21156
     21153     21152     21154     21157     21154     21157     21160     21161
     21154     21157     21160     21162     21154     21157     21160     21163
     21155     21154     21157     21158     21155     21154     21157     21159
     21155     21154     21157     21160     21156     21154     21157     21158
     21156     21154     21157     21159     21156     21154     21157     21160
     21157     21160     21163     21164     21157     21160     21163     21165
     21157     21160     21163     21166     21158     21157     21160     21161
     21158     21157     21160     21162     21158     21157     21160     21163
     21159     21157     21160     21161     21159     21157     21160     21162
     21159     21157     21160     21163     21160     21163     21166     21167
     21160     21163     21166     21168     21160     21163     21166     21169
     21161     21160     21163     21164     21161     21160     21163     21165
     21161     21160     21163     21166     21162     21160     21163     21164
     21162     21160     21163     21165     21162     21160     21163     21166
     21164     21163     21166     21167     21164     21163     21166     21168
     21164     21163     21166     21169     21165     21163     21166     21167
     21165     21163     21166     21168     21165     21163     21166     21169
     21170     21173     21176     21177     21170     21173     21176     21178
     21170     21173     21176     21179     21171     21170     21173     21174
     21171     21170     21173     21175     21171     21170     21173     21176
     21172     21170     21173     21174     21172     21170     21173     21175
     21172     21170     21173     21176     21173     21176     21179     21180
     21173     21176     21179     21181     21173     21176     21179     21182
     21174     21173     21176     21177     21174     21173     21176     21178
     21174     21173     21176     21179     21175     21173     21176     21177
     21175     21173     21176     21178     21175     21173     21176     21179
     21176     21179     21182     21183     21176     21179     21182     21184
     21176     21179     21182     21185     21177     21176     21179     21180
     21177     21176     21179     21181     21177     21176     21179     21182
     21178     21176     21179     21180     21178     21176     21179     21181
     21178     21176     21179     21182     21179     21182     21185     21186
     21179     21182     21185     21187     21179     21182     21185     21188
     21180     21179     21182     21183     21180     21179     21182     21184
     21180     21179     21182     21185     21181     21179     21182     21183
     21181     21179     21182     21184     21181     21179     21182     21185
     21182     21185     21188     21189     21182     21185     21188     21190
     21182     21185     21188     21191     21183     21182     21185     21186
     21183     21182     21185     21187     21183     21182     21185     21188
     21184     21182     21185     21186     21184     21182     21185     21187
     21184     21182     21185     21188     21185     21188     21191     21192
     21185     21188     21191     21193     21185     21188     21191     21194
     21186     21185     21188     21189     21186     21185     21188     21190
     21186     21185     21188     21191     21187     21185     21188     21189
     21187     21185     21188     21190     21187     21185     21188     21191
     21188     21191     21194     21195     21188     21191     21194     21196
     21188     21191     21194     21197     21189     21188     21191     21192
     21189     21188     21191     21193     21189     21188     21191     21194
     21190     21188     21191     21192     21190     21188     21191     21193
     21190     21188     21191     21194     21191     21194     21197     21198
     21191     21194     21197     21199     21191     21194     21197     21200
     21192     21191     21194     21195     21192     21191     21194     21196
     21192     21191     21194     21197     21193     21191     21194     21195
     21193     21191     21194     21196     21193     21191     21194     21197
     21194     21197     21200     21201     21194     21197     21200     21202
     21194     21197     21200     21203     21195     21194     21197     21198
     21195     21194     21197     21199     21195     21194     21197     21200
     21196     21194     21197     21198     21196     21194     21197     21199
     21196     21194     21197     21200     21197     21200     21203     21204
     21197     21200     21203     21205     21197     21200     21203     21206
     21198     21197     21200     21201     21198     21197     21200     21202
     21198     21197     21200     21203     21199     21197     21200     21201
     21199     21197     21200     21202     21199     21197     21200     21203
     21200     21203     21206     21207     21200     21203     21206     21208
     21200     21203     21206     21209     21201     21200     21203     21204
     21201     21200     21203     21205     21201     21200     21203     21206
     21202     21200     21203     21204     21202     21200     21203     21205
     21202     21200     21203     21206     21203     21206     21209     21210
     21203     21206     21209     21211     21203     21206     21209     21212
     21204     21203     21206     21207     21204     21203     21206     21208
     21204     21203     21206     21209     21205     21203     21206     21207
     21205     21203     21206     21208     21205     21203     21206     21209
     21206     21209     21212     21213     21206     21209     21212     21214
     21206     21209     21212     21215     21207     21206     21209     21210
     21207     21206     21209     21211     21207     21206     21209     21212
     21208     21206     21209     21210     21208     21206     21209     21211
     21208     21206     21209     21212     21209     21212     21215     21216
     21209     21212     21215     21217     21209     21212     21215     21218
     21210     21209     21212     21213     21210     21209     21212     21214
     21210     21209     21212     21215     21211     21209     21212     21213
     21211     21209     21212     21214     21211     21209     21212     21215
     21213     21212     21215     21216     21213     21212     21215     21217
     21213     21212     21215     21218     21214     21212     21215     21216
     21214     21212     21215     21217     21214     21212     21215     21218
     21219     21220     21235     21236     21219     21220     21235     21237
     21219     21220     21235     21241     21220     21219     21223     21224
     21220     21219     21223     21225     21220     21219     21223     21226
     21220     21219     21227     21228     21220     21219     21227     21229
     21220     21219     21227     21230     21220     21219     21231     21232
     21220     21219     21231     21233     21220     21219     21231     21234
     21220     21235     21241     21238     21221     21220     21219     21223
     21221     21220     21219     21227     21221     21220     21219     21231
     21221     21220     21235     21236     21221     21220     21235     21237
     21221     21220     21235     21241     21222     21220     21219     21223
     21222     21220     21219     21227     21222     21220     21219     21231
     21222     21220     21235     21236     21222     21220     21235     21237
     21222     21220     21235     21241     21223     21219     21220     21235
     21223     21219     21227     21228     21223     21219     21227     21229
     21223     21219     21227     21230     21223     21219     21231     21232
     21223     21219     21231     21233     21223     21219     21231     21234
     21224     21223     21219     21227     21224     21223     21219     21231
     21225     21223     21219     21227     21225     21223     21219     21231
     21226     21223     21219     21227     21226     21223     21219     21231
     21227     21219     21220     21235     21227     21219     21231     21232
     21227     21219     21231     21233     21227     21219     21231     21234
     21228     21227     21219     21231     21229     21227     21219     21231
     21230     21227     21219     21231     21231     21219     21220     21235
     21235     21241     21238     21239     21235     21241     21238     21240
     21235     21241     21238     21242     21236     21235     21241     21238
     21237     21235     21241     21238     21238     21242     21243     21244
     21238     21242     21243     21245     21238     21242     21243     21246
     21239     21238     21242     21243     21240     21238     21242     21243
     21241     21238     21242     21243     21242     21243     21246     21247
     21242     21243     21246     21248     21242     21243     21246     21254
     21243     21246     21248     21249     21243     21246     21254     21255
     21243     21246     21254     21256     21243     21246     21254     21257
     21244     21243     21246     21247     21244     21243     21246     21248
     21244     21243     21246     21254     21245     21243     21246     21247
     21245     21243     21246     21248     21245     21243     21246     21254
     21246     21248     21249     21250     21246     21248     21249     21251
     21246     21254     21257     21258     21247     21246     21248     21249
     21247     21246     21254     21255     21247     21246     21254     21256
     21247     21246     21254     21257     21248     21246     21254     21255
     21248     21246     21254     21256     21248     21246     21254     21257
     21248     21249     21251     21252     21248     21249     21251     21253
     21248     21249     21251     21263     21249     21248     21246     21254
     21249     21251     21263     21264     21249     21251     21263     21265
     21249     21251     21263     21266     21250     21249     21251     21252
     21250     21249     21251     21253     21250     21249     21251     21263
     21251     21263     21266     21267     21251     21263     21266     21268
     21251     21263     21266     21269     21252     21251     21263     21264
     21252     21251     21263     21265     21252     21251     21263     21266
     21253     21251     21263     21264     21253     21251     21263     21265
     21253     21251     21263     21266     21254     21257     21258     21259
     21254     21257     21258     21260     21255     21254     21257     21258
     21256     21254     21257     21258     21257     21258     21260     21261
     21257     21258     21260     21262     21257     21258     21260     21310
     21258     21260     21310     21311     21258     21260     21310     21312
     21258     21260     21310     21313     21259     21258     21260     21261
     21259     21258     21260     21262     21259     21258     21260     21310
     21260     21310     21313     21314     21260     21310     21313     21315
     21260     21310     21313     21316     21261     21260     21310     21311
     21261     21260     21310     21312     21261     21260     21310     21313
     21262     21260     21310     21311     21262     21260     21310     21312
     21262     21260     21310     21313     21263     21266     21269     21270
     21263     21266     21269     21271     21264     21263     21266     21267
     21264     21263     21266     21268     21264     21263     21266     21269
     21265     21263     21266     21267     21265     21263     21266     21268
     21265     21263     21266     21269     21266     21269     21271     21272
     21266     21269     21271     21273     21267     21266     21269     21270
     21267     21266     21269     21271     21268     21266     21269     21270
     21268     21266     21269     21271     21269     21271     21273     21274
     21269     21271     21273     21275     21269     21271     21273     21276
     21270     21269     21271     21272     21270     21269     21271     21273
     21271     21273     21276     21277     21271     21273     21276     21278
     21272     21271     21273     21274     21272     21271     21273     21275
     21272     21271     21273     21276     21273     21276     21278     21279
     21273     21276     21278     21280     21274     21273     21276     21277
     21274     21273     21276     21278     21275     21273     21276     21277
     21275     21273     21276     21278     21276     21278     21280     21281
     21276     21278     21280     21282     21276     21278     21280     21283
     21277     21276     21278     21279     21277     21276     21278     21280
     21278     21280     21283     21284     21278     21280     21283     21285
     21279     21278     21280     21281     21279     21278     21280     21282
     21279     21278     21280     21283     21280     21283     21285     21286
     21280     21283     21285     21287     21281     21280     21283     21284
     21281     21280     21283     21285     21282     21280     21283     21284
     21282     21280     21283     21285     21283     21285     21287     21288
     21283     21285     21287     21289     21283     21285     21287     21290
     21284     21283     21285     21286     21284     21283     21285     21287
     21285     21287     21290     21291     21285     21287     21290     21292
     21286     21285     21287     21288     21286     21285     21287     21289
     21286     21285     21287     21290     21287     21290     21292     21293
     21287     21290     21292     21294     21288     21287     21290     21291
     21288     21287     21290     21292     21289     21287     21290     21291
     21289     21287     21290     21292     21290     21292     21294     21295
     21290     21292     21294     21296     21290     21292     21294     21297
     21291     21290     21292     21293     21291     21290     21292     21294
     21292     21294     21297     21298     21292     21294     21297     21299
     21292     21294     21297     21300     21293     21292     21294     21295
     21293     21292     21294     21296     21293     21292     21294     21297
     21294     21297     21300     21301     21294     21297     21300     21302
     21294     21297     21300     21303     21295     21294     21297     21298
     21295     21294     21297     21299     21295     21294     21297     21300
     21296     21294     21297     21298     21296     21294     21297     21299
     21296     21294     21297     21300     21297     21300     21303     21304
     21297     21300     21303     21305     21297     21300     21303     21306
     21298     21297     21300     21301     21298     21297     21300     21302
     21298     21297     21300     21303     21299     21297     21300     21301
     21299     21297     21300     21302     21299     21297     21300     21303
     21300     21303     21306     21307     21300     21303     21306     21308
     21300     21303     21306     21309     21301     21300     21303     21304
     21301     21300     21303     21305     21301     21300     21303     21306
     21302     21300     21303     21304     21302     21300     21303     21305
     21302     21300     21303     21306     21304     21303     21306     21307
     21304     21303     21306     21308     21304     21303     21306     21309
     21305     21303     21306     21307     21305     21303     21306     21308
     21305     21303     21306     21309     21310     21313     21316     21317
     21310     21313     21316     21318     21310     21313     21316     21319
     21311     21310     21313     21314     21311     21310     21313     21315
     21311     21310     21313     21316     21312     21310     21313     21314
     21312     21310     21313     21315     21312     21310     21313     21316
     21313     21316     21319     21320     21313     21316     21319     21321
     21313     21316     21319     21322     21314     21313     21316     21317
     21314     21313     21316     21318     21314     21313     21316     21319
     21315     21313     21316     21317     21315     21313     21316     21318
     21315     21313     21316     21319     21316     21319     21322     21323
     21316     21319     21322     21324     21316     21319     21322     21325
     21317     21316     21319     21320     21317     21316     21319     21321
     21317     21316     21319     21322     21318     21316     21319     21320
     21318     21316     21319     21321     21318     21316     21319     21322
     21319     21322     21325     21326     21319     21322     21325     21327
     21319     21322     21325     21328     21320     21319     21322     21323
     21320     21319     21322     21324     21320     21319     21322     21325
     21321     21319     21322     21323     21321     21319     21322     21324
     21321     21319     21322     21325     21322     21325     21328     21329
     21322     21325     21328     21330     21322     21325     21328     21331
     21323     21322     21325     21326     21323     21322     21325     21327
     21323     21322     21325     21328     21324     21322     21325     21326
     21324     21322     21325     21327     21324     21322     21325     21328
     21325     21328     21331     21332     21325     21328     21331     21333
     21325     21328     21331     21334     21326     21325     21328     21329
     21326     21325     21328     21330     21326     21325     21328     21331
     21327     21325     21328     21329     21327     21325     21328     21330
     21327     21325     21328     21331     21328     21331     21334     21335
     21328     21331     21334     21336     21328     21331     21334     21337
     21329     21328     21331     21332     21329     21328     21331     21333
     21329     21328     21331     21334     21330     21328     21331     21332
     21330     21328     21331     21333     21330     21328     21331     21334
     21331     21334     21337     21338     21331     21334     21337     21339
     21331     21334     21337     21340     21332     21331     21334     21335
     21332     21331     21334     21336     21332     21331     21334     21337
     21333     21331     21334     21335     21333     21331     21334     21336
     21333     21331     21334     21337     21334     21337     21340     21341
     21334     21337     21340     21342     21334     21337     21340     21343
     21335     21334     21337     21338     21335     21334     21337     21339
     21335     21334     21337     21340     21336     21334     21337     21338
     21336     21334     21337     21339     21336     21334     21337     21340
     21337     21340     21343     21344     21337     21340     21343     21345
     21337     21340     21343     21346     21338     21337     21340     21341
     21338     21337     21340     21342     21338     21337     21340     21343
     21339     21337     21340     21341     21339     21337     21340     21342
     21339     21337     21340     21343     21340     21343     21346     21347
     21340     21343     21346     21348     21340     21343     21346     21349
     21341     21340     21343     21344     21341     21340     21343     21345
     21341     21340     21343     21346     21342     21340     21343     21344
     21342     21340     21343     21345     21342     21340     21343     21346
     21343     21346     21349     21350     21343     21346     21349     21351
     21343     21346     21349     21352     21344     21343     21346     21347
     21344     21343     21346     21348     21344     21343     21346     21349
     21345     21343     21346     21347     21345     21343     21346     21348
     21345     21343     21346     21349     21346     21349     21352     21353
     21346     21349     21352     21354     21346     21349     21352     21355
     21347     21346     21349     21350     21347     21346     21349     21351
     21347     21346     21349     21352     21348     21346     21349     21350
     21348     21346     21349     21351     21348     21346     21349     21352
     21349     21352     21355     21356     21349     21352     21355     21357
     21349     21352     21355     21358     21350     21349     21352     21353
     21350     21349     21352     21354     21350     21349     21352     21355
     21351     21349     21352     21353     21351     21349     21352     21354
     21351     21349     21352     21355     21353     21352     21355     21356
     21353     21352     21355     21357     21353     21352     21355     21358
     21354     21352     21355     21356     21354     21352     21355     21357
     21354     21352     21355     21358     21359     21372     21375     21376
     21359     21372     21375     21377     21359     21372     21375     21381
     21360     21359     21364     21365     21360     21359     21364     21366
     21360     21359     21364     21367     21360     21359     21368     21369
     21360     21359     21368     21370     21360     21359     21368     21371
     21360     21359     21372     21373     21360     21359     21372     21374
     21360     21359     21372     21375     21361     21360     21359     21364
     21361     21360     21359     21368     21361     21360     21359     21372
     21362     21360     21359     21364     21362     21360     21359     21368
     21362     21360     21359     21372     21363     21360     21359     21364
     21363     21360     21359     21368     21363     21360     21359     21372
     21364     21359     21368     21369     21364     21359     21368     21370
     21364     21359     21368     21371     21364     21359     21372     21373
     21364     21359     21372     21374     21364     21359     21372     21375
     21365     21364     21359     21368     21365     21364     21359     21372
     21366     21364     21359     21368     21366     21364     21359     21372
     21367     21364     21359     21368     21367     21364     21359     21372
     21368     21359     21372     21373     21368     21359     21372     21374
     21368     21359     21372     21375     21369     21368     21359     21372
     21370     21368     21359     21372     21371     21368     21359     21372
     21372     21375     21381     21378     21373     21372     21375     21376
     21373     21372     21375     21377     21373     21372     21375     21381
     21374     21372     21375     21376     21374     21372     21375     21377
     21374     21372     21375     21381     21375     21381     21378     21379
     21375     21381     21378     21380     21375     21381     21378     21382
     21376     21375     21381     21378     21377     21375     21381     21378
     21378     21382     21383     21384     21378     21382     21383     21385
     21378     21382     21383     21386     21379     21378     21382     21383
     21380     21378     21382     21383     21381     21378     21382     21383
     21382     21383     21386     21387     21382     21383     21386     21388
     21382     21383     21386     21394     21383     21386     21388     21389
     21383     21386     21394     21395     21383     21386     21394     21396
     21383     21386     21394     21397     21384     21383     21386     21387
     21384     21383     21386     21388     21384     21383     21386     21394
     21385     21383     21386     21387     21385     21383     21386     21388
     21385     21383     21386     21394     21386     21388     21389     21390
     21386     21388     21389     21391     21386     21394     21397     21398
     21387     21386     21388     21389     21387     21386     21394     21395
     21387     21386     21394     21396     21387     21386     21394     21397
     21388     21386     21394     21395     21388     21386     21394     21396
     21388     21386     21394     21397     21388     21389     21391     21392
     21388     21389     21391     21393     21388     21389     21391     21403
     21389     21388     21386     21394     21389     21391     21403     21404
     21389     21391     21403     21405     21389     21391     21403     21406
     21390     21389     21391     21392     21390     21389     21391     21393
     21390     21389     21391     21403     21391     21403     21406     21407
     21391     21403     21406     21408     21391     21403     21406     21409
     21392     21391     21403     21404     21392     21391     21403     21405
     21392     21391     21403     21406     21393     21391     21403     21404
     21393     21391     21403     21405     21393     21391     21403     21406
     21394     21397     21398     21399     21394     21397     21398     21400
     21395     21394     21397     21398     21396     21394     21397     21398
     21397     21398     21400     21401     21397     21398     21400     21402
     21397     21398     21400     21448     21398     21400     21448     21449
     21398     21400     21448     21450     21398     21400     21448     21451
     21399     21398     21400     21401     21399     21398     21400     21402
     21399     21398     21400     21448     21400     21448     21451     21452
     21400     21448     21451     21453     21400     21448     21451     21454
     21401     21400     21448     21449     21401     21400     21448     21450
     21401     21400     21448     21451     21402     21400     21448     21449
     21402     21400     21448     21450     21402     21400     21448     21451
     21403     21406     21409     21410     21403     21406     21409     21411
     21403     21406     21409     21412     21404     21403     21406     21407
     21404     21403     21406     21408     21404     21403     21406     21409
     21405     21403     21406     21407     21405     21403     21406     21408
     21405     21403     21406     21409     21406     21409     21412     21413
     21406     21409     21412     21414     21406     21409     21412     21415
     21407     21406     21409     21410     21407     21406     21409     21411
     21407     21406     21409     21412     21408     21406     21409     21410
     21408     21406     21409     21411     21408     21406     21409     21412
     21409     21412     21415     21416     21409     21412     21415     21417
     21409     21412     21415     21418     21410     21409     21412     21413
     21410     21409     21412     21414     21410     21409     21412     21415
     21411     21409     21412     21413     21411     21409     21412     21414
     21411     21409     21412     21415     21412     21415     21418     21419
     21412     21415     21418     21420     21412     21415     21418     21421
     21413     21412     21415     21416     21413     21412     21415     21417
     21413     21412     21415     21418     21414     21412     21415     21416
     21414     21412     21415     21417     21414     21412     21415     21418
     21415     21418     21421     21422     21415     21418     21421     21423
     21416     21415     21418     21419     21416     21415     21418     21420
     21416     21415     21418     21421     21417     21415     21418     21419
     21417     21415     21418     21420     21417     21415     21418     21421
     21418     21421     21423     21424     21418     21421     21423     21425
     21419     21418     21421     21422     21419     21418     21421     21423
     21420     21418     21421     21422     21420     21418     21421     21423
     21421     21423     21425     21426     21421     21423     21425     21427
     21421     21423     21425     21428     21422     21421     21423     21424
     21422     21421     21423     21425     21423     21425     21428     21429
     21423     21425     21428     21430     21424     21423     21425     21426
     21424     21423     21425     21427     21424     21423     21425     21428
     21425     21428     21430     21431     21425     21428     21430     21432
     21426     21425     21428     21429     21426     21425     21428     21430
     21427     21425     21428     21429     21427     21425     21428     21430
     21428     21430     21432     21433     21428     21430     21432     21434
     21428     21430     21432     21435     21429     21428     21430     21431
     21429     21428     21430     21432     21430     21432     21435     21436
     21430     21432     21435     21437     21430     21432     21435     21438
     21431     21430     21432     21433     21431     21430     21432     21434
     21431     21430     21432     21435     21432     21435     21438     21439
     21432     21435     21438     21440     21432     21435     21438     21441
     21433     21432     21435     21436     21433     21432     21435     21437
     21433     21432     21435     21438     21434     21432     21435     21436
     21434     21432     21435     21437     21434     21432     21435     21438
     21435     21438     21441     21442     21435     21438     21441     21443
     21435     21438     21441     21444     21436     21435     21438     21439
     21436     21435     21438     21440     21436     21435     21438     21441
     21437     21435     21438     21439     21437     21435     21438     21440
     21437     21435     21438     21441     21438     21441     21444     21445
     21438     21441     21444     21446     21438     21441     21444     21447
     21439     21438     21441     21442     21439     21438     21441     21443
     21439     21438     21441     21444     21440     21438     21441     21442
     21440     21438     21441     21443     21440     21438     21441     21444
     21442     21441     21444     21445     21442     21441     21444     21446
     21442     21441     21444     21447     21443     21441     21444     21445
     21443     21441     21444     21446     21443     21441     21444     21447
     21448     21451     21454     21455     21448     21451     21454     21456
     21448     21451     21454     21457     21449     21448     21451     21452
     21449     21448     21451     21453     21449     21448     21451     21454
     21450     21448     21451     21452     21450     21448     21451     21453
     21450     21448     21451     21454     21451     21454     21457     21458
     21451     21454     21457     21459     21451     21454     21457     21460
     21452     21451     21454     21455     21452     21451     21454     21456
     21452     21451     21454     21457     21453     21451     21454     21455
     21453     21451     21454     21456     21453     21451     21454     21457
     21454     21457     21460     21461     21454     21457     21460     21462
     21454     21457     21460     21463     21455     21454     21457     21458
     21455     21454     21457     21459     21455     21454     21457     21460
     21456     21454     21457     21458     21456     21454     21457     21459
     21456     21454     21457     21460     21457     21460     21463     21464
     21457     21460     21463     21465     21457     21460     21463     21466
     21458     21457     21460     21461     21458     21457     21460     21462
     21458     21457     21460     21463     21459     21457     21460     21461
     21459     21457     21460     21462     21459     21457     21460     21463
     21460     21463     21466     21467     21460     21463     21466     21468
     21460     21463     21466     21469     21461     21460     21463     21464
     21461     21460     21463     21465     21461     21460     21463     21466
     21462     21460     21463     21464     21462     21460     21463     21465
     21462     21460     21463     21466     21463     21466     21469     21470
     21463     21466     21469     21471     21463     21466     21469     21472
     21464     21463     21466     21467     21464     21463     21466     21468
     21464     21463     21466     21469     21465     21463     21466     21467
     21465     21463     21466     21468     21465     21463     21466     21469
     21466     21469     21472     21473     21466     21469     21472     21474
     21466     21469     21472     21475     21467     21466     21469     21470
     21467     21466     21469     21471     21467     21466     21469     21472
     21468     21466     21469     21470     21468     21466     21469     21471
     21468     21466     21469     21472     21469     21472     21475     21476
     21469     21472     21475     21477     21469     21472     21475     21478
     21470     21469     21472     21473     21470     21469     21472     21474
     21470     21469     21472     21475     21471     21469     21472     21473
     21471     21469     21472     21474     21471     21469     21472     21475
     21472     21475     21478     21479     21472     21475     21478     21480
     21472     21475     21478     21481     21473     21472     21475     21476
     21473     21472     21475     21477     21473     21472     21475     21478
     21474     21472     21475     21476     21474     21472     21475     21477
     21474     21472     21475     21478     21475     21478     21481     21482
     21475     21478     21481     21483     21475     21478     21481     21484
     21476     21475     21478     21479     21476     21475     21478     21480
     21476     21475     21478     21481     21477     21475     21478     21479
     21477     21475     21478     21480     21477     21475     21478     21481
     21478     21481     21484     21485     21478     21481     21484     21486
     21478     21481     21484     21487     21479     21478     21481     21482
     21479     21478     21481     21483     21479     21478     21481     21484
     21480     21478     21481     21482     21480     21478     21481     21483
     21480     21478     21481     21484     21481     21484     21487     21488
     21481     21484     21487     21489     21481     21484     21487     21490
     21482     21481     21484     21485     21482     21481     21484     21486
     21482     21481     21484     21487     21483     21481     21484     21485
     21483     21481     21484     21486     21483     21481     21484     21487
     21484     21487     21490     21491     21484     21487     21490     21492
     21484     21487     21490     21493     21485     21484     21487     21488
     21485     21484     21487     21489     21485     21484     21487     21490
     21486     21484     21487     21488     21486     21484     21487     21489
     21486     21484     21487     21490     21487     21490     21493     21494
     21487     21490     21493     21495     21487     21490     21493     21496
     21488     21487     21490     21491     21488     21487     21490     21492
     21488     21487     21490     21493     21489     21487     21490     21491
     21489     21487     21490     21492     21489     21487     21490     21493
     21491     21490     21493     21494     21491     21490     21493     21495
     21491     21490     21493     21496     21492     21490     21493     21494
     21492     21490     21493     21495     21492     21490     21493     21496
     21497     21501     21504     21505     21497     21501     21504     21535
     21497     21543     21540     21535     21497     21543     21540     21541
     21497     21543     21540     21542     21498     21497     21499     21500
     21498     21497     21501     21502     21498     21497     21501     21503
     21498     21497     21501     21504     21498     21497     21543     21540
     21498     21497     21543     21544     21498     21497     21543     21545
     21499     21497     21501     21502     21499     21497     21501     21503
     21499     21497     21501     21504     21499     21497     21543     21540
     21499     21497     21543     21544     21499     21497     21543     21545
     21500     21499     21497     21501     21500     21499     21497     21543
     21501     21497     21543     21540     21501     21497     21543     21544
     21501     21497     21543     21545     21501     21504     21505     21506
     21501     21504     21505     21507     21501     21504     21535     21533
     21501     21504     21535     21536     21501     21504     21535     21540
     21502     21501     21497     21543     21502     21501     21504     21505
     21502     21501     21504     21535     21503     21501     21497     21543
     21503     21501     21504     21505     21503     21501     21504     21535
     21504     21501     21497     21543     21504     21505     21507     21508
     21504     21505     21507     21509     21504     21505     21507     21510
     21504     21535     21533     21510     21504     21535     21533     21530
     21504     21535     21533     21534     21504     21535     21536     21537
     21504     21535     21536     21538     21504     21535     21536     21539
     21504     21535     21540     21541     21504     21535     21540     21542
     21504     21535     21540     21543     21505     21504     21535     21533
     21505     21504     21535     21536     21505     21504     21535     21540
     21505     21507     21510     21511     21505     21507     21510     21512
     21505     21507     21510     21533     21506     21505     21504     21535
     21506     21505     21507     21508     21506     21505     21507     21509
     21506     21505     21507     21510     21507     21505     21504     21535
     21507     21510     21512     21513     21507     21510     21512     21514
     21507     21510     21512     21522     21507     21510     21533     21530
     21507     21510     21533     21534     21507     21510     21533     21535
     21508     21507     21510     21511     21508     21507     21510     21512
     21508     21507     21510     21533     21509     21507     21510     21511
     21509     21507     21510     21512     21509     21507     21510     21533
     21510     21512     21514     21515     21510     21512     21514     21516
     21510     21512     21514     21517     21510     21512     21522     21520
     21510     21512     21522     21523     21510     21512     21522     21527
     21510     21533     21530     21527     21510     21533     21530     21531
     21510     21533     21530     21532     21510     21533     21535     21536
     21510     21533     21535     21540     21511     21510     21512     21513
     21511     21510     21512     21514     21511     21510     21512     21522
     21511     21510     21533     21530     21511     21510     21533     21534
     21511     21510     21533     21535     21512     21510     21533     21530
     21512     21510     21533     21534     21512     21510     21533     21535
     21512     21514     21517     21518     21512     21514     21517     21519
     21512     21514     21517     21520     21512     21522     21520     21517
     21512     21522     21520     21521     21512     21522     21520     21546
     21512     21522     21523     21524     21512     21522     21523     21525
     21512     21522     21523     21526     21512     21522     21527     21528
     21512     21522     21527     21529     21512     21522     21527     21530
     21513     21512     21510     21533     21513     21512     21514     21515
     21513     21512     21514     21516     21513     21512     21514     21517
     21513     21512     21522     21520     21513     21512     21522     21523
     21513     21512     21522     21527     21514     21512     21510     21533
     21514     21512     21522     21520     21514     21512     21522     21523
     21514     21512     21522     21527     21514     21517     21520     21521
     21514     21517     21520     21522     21514     21517     21520     21546
     21515     21514     21512     21522     21515     21514     21517     21518
     21515     21514     21517     21519     21515     21514     21517     21520
     21516     21514     21512     21522     21516     21514     21517     21518
     21516     21514     21517     21519     21516     21514     21517     21520
     21517     21514     21512     21522     21517     21520     21522     21523
     21517     21520     21522     21527     21517     21520     21546     21547
     21517     21520     21546     21548     21517     21520     21546     21552
     21518     21517     21520     21521     21518     21517     21520     21522
     21518     21517     21520     21546     21519     21517     21520     21521
     21519     21517     21520     21522     21519     21517     21520     21546
     21520     21522     21523     21524     21520     21522     21523     21525
     21520     21522     21523     21526     21520     21522     21527     21528
     21520     21522     21527     21529     21520     21522     21527     21530
     21520     21546     21548     21549     21520     21546     21548     21550
     21520     21546     21548     21551     21520     21546     21552     21553
     21520     21546     21552     21554     21520     21546     21552     21555
     21521     21520     21522     21523     21521     21520     21522     21527
     21521     21520     21546     21547     21521     21520     21546     21548
     21521     21520     21546     21552     21522     21512     21510     21533
     21522     21520     21546     21547     21522     21520     21546     21548
     21522     21520     21546     21552     21522     21527     21530     21531
     21522     21527     21530     21532     21522     21527     21530     21533
     21523     21522     21520     21546     21523     21522     21527     21528
     21523     21522     21527     21529     21523     21522     21527     21530
     21524     21523     21522     21527     21525     21523     21522     21527
     21526     21523     21522     21527     21527     21522     21520     21546
     21527     21530     21533     21534     21527     21530     21533     21535
     21528     21527     21530     21531     21528     21527     21530     21532
     21528     21527     21530     21533     21529     21527     21530     21531
     21529     21527     21530     21532     21529     21527     21530     21533
     21530     21533     21535     21536     21530     21533     21535     21540
     21531     21530     21533     21534     21531     21530     21533     21535
     21532     21530     21533     21534     21532     21530     21533     21535
     21533     21535     21536     21537     21533     21535     21536     21538
     21533     21535     21536     21539     21533     21535     21540     21541
     21533     21535     21540     21542     21533     21535     21540     21543
     21534     21533     21535     21536     21534     21533     21535     21540
     21535     21540     21543     21544     21535     21540     21543     21545
     21536     21535     21540     21541     21536     21535     21540     21542
     21536     21535     21540     21543     21537     21536     21535     21540
     21538     21536     21535     21540     21539     21536     21535     21540
     21541     21540     21543     21544     21541     21540     21543     21545
     21542     21540     21543     21544     21542     21540     21543     21545
     21546     21552     21555     21556     21546     21552     21555     21557
     21546     21552     21555     21558     21547     21546     21548     21549
     21547     21546     21548     21550     21547     21546     21548     21551
     21547     21546     21552     21553     21547     21546     21552     21554
     21547     21546     21552     21555     21548     21546     21552     21553
     21548     21546     21552     21554     21548     21546     21552     21555
     21549     21548     21546     21552     21550     21548     21546     21552
     21551     21548     21546     21552     21552     21555     21558     21559
     21552     21555     21558     21560     21552     21555     21558     21561
     21553     21552     21555     21556     21553     21552     21555     21557
     21553     21552     21555     21558     21554     21552     21555     21556
     21554     21552     21555     21557     21554     21552     21555     21558
     21555     21558     21561     21562     21555     21558     21561     21563
     21555     21558     21561     21567     21556     21555     21558     21559
     21556     21555     21558     21560     21556     21555     21558     21561
     21557     21555     21558     21559     21557     21555     21558     21560
     21557     21555     21558     21561     21558     21561     21563     21564
     21558     21561     21563     21565     21558     21561     21563     21566
     21558     21561     21567     21568     21558     21561     21567     21569
     21558     21561     21567     21570     21559     21558     21561     21562
     21559     21558     21561     21563     21559     21558     21561     21567
     21560     21558     21561     21562     21560     21558     21561     21563
     21560     21558     21561     21567     21562     21561     21563     21564
     21562     21561     21563     21565     21562     21561     21563     21566
     21562     21561     21567     21568     21562     21561     21567     21569
     21562     21561     21567     21570     21563     21561     21567     21568
     21563     21561     21567     21569     21563     21561     21567     21570
     21564     21563     21561     21567     21565     21563     21561     21567
     21566     21563     21561     21567     21571     21575     21578     21579
     21571     21575     21578     21609     21571     21617     21614     21609
     21571     21617     21614     21615     21571     21617     21614     21616
     21572     21571     21573     21574     21572     21571     21575     21576
     21572     21571     21575     21577     21572     21571     21575     21578
     21572     21571     21617     21614     21572     21571     21617     21618
     21572     21571     21617     21619     21573     21571     21575     21576
     21573     21571     21575     21577     21573     21571     21575     21578
     21573     21571     21617     21614     21573     21571     21617     21618
     21573     21571     21617     21619     21574     21573     21571     21575
     21574     21573     21571     21617     21575     21571     21617     21614
     21575     21571     21617     21618     21575     21571     21617     21619
     21575     21578     21579     21580     21575     21578     21579     21581
     21575     21578     21609     21607     21575     21578     21609     21610
     21575     21578     21609     21614     21576     21575     21571     21617
     21576     21575     21578     21579     21576     21575     21578     21609
     21577     21575     21571     21617     21577     21575     21578     21579
     21577     21575     21578     21609     21578     21575     21571     21617
     21578     21579     21581     21582     21578     21579     21581     21583
     21578     21579     21581     21584     21578     21609     21607     21584
     21578     21609     21607     21604     21578     21609     21607     21608
     21578     21609     21610     21611     21578     21609     21610     21612
     21578     21609     21610     21613     21578     21609     21614     21615
     21578     21609     21614     21616     21578     21609     21614     21617
     21579     21578     21609     21607     21579     21578     21609     21610
     21579     21578     21609     21614     21579     21581     21584     21585
     21579     21581     21584     21586     21579     21581     21584     21607
     21580     21579     21578     21609     21580     21579     21581     21582
     21580     21579     21581     21583     21580     21579     21581     21584
     21581     21579     21578     21609     21581     21584     21586     21587
     21581     21584     21586     21588     21581     21584     21586     21596
     21581     21584     21607     21604     21581     21584     21607     21608
     21581     21584     21607     21609     21582     21581     21584     21585
     21582     21581     21584     21586     21582     21581     21584     21607
     21583     21581     21584     21585     21583     21581     21584     21586
     21583     21581     21584     21607     21584     21586     21588     21589
     21584     21586     21588     21590     21584     21586     21588     21591
     21584     21586     21596     21594     21584     21586     21596     21597
     21584     21586     21596     21601     21584     21607     21604     21601
     21584     21607     21604     21605     21584     21607     21604     21606
     21584     21607     21609     21610     21584     21607     21609     21614
     21585     21584     21586     21587     21585     21584     21586     21588
     21585     21584     21586     21596     21585     21584     21607     21604
     21585     21584     21607     21608     21585     21584     21607     21609
     21586     21584     21607     21604     21586     21584     21607     21608
     21586     21584     21607     21609     21586     21588     21591     21592
     21586     21588     21591     21593     21586     21588     21591     21594
     21586     21596     21594     21591     21586     21596     21594     21595
     21586     21596     21594     21620     21586     21596     21597     21598
     21586     21596     21597     21599     21586     21596     21597     21600
     21586     21596     21601     21602     21586     21596     21601     21603
     21586     21596     21601     21604     21587     21586     21584     21607
     21587     21586     21588     21589     21587     21586     21588     21590
     21587     21586     21588     21591     21587     21586     21596     21594
     21587     21586     21596     21597     21587     21586     21596     21601
     21588     21586     21584     21607     21588     21586     21596     21594
     21588     21586     21596     21597     21588     21586     21596     21601
     21588     21591     21594     21595     21588     21591     21594     21596
     21588     21591     21594     21620     21589     21588     21586     21596
     21589     21588     21591     21592     21589     21588     21591     21593
     21589     21588     21591     21594     21590     21588     21586     21596
     21590     21588     21591     21592     21590     21588     21591     21593
     21590     21588     21591     21594     21591     21588     21586     21596
     21591     21594     21596     21597     21591     21594     21596     21601
     21591     21594     21620     21621     21591     21594     21620     21622
     21591     21594     21620     21626     21592     21591     21594     21595
     21592     21591     21594     21596     21592     21591     21594     21620
     21593     21591     21594     21595     21593     21591     21594     21596
     21593     21591     21594     21620     21594     21596     21597     21598
     21594     21596     21597     21599     21594     21596     21597     21600
     21594     21596     21601     21602     21594     21596     21601     21603
     21594     21596     21601     21604     21594     21620     21622     21623
     21594     21620     21622     21624     21594     21620     21622     21625
     21594     21620     21626     21627     21594     21620     21626     21628
     21594     21620     21626     21629     21595     21594     21596     21597
     21595     21594     21596     21601     21595     21594     21620     21621
     21595     21594     21620     21622     21595     21594     21620     21626
     21596     21586     21584     21607     21596     21594     21620     21621
     21596     21594     21620     21622     21596     21594     21620     21626
     21596     21601     21604     21605     21596     21601     21604     21606
     21596     21601     21604     21607     21597     21596     21594     21620
     21597     21596     21601     21602     21597     21596     21601     21603
     21597     21596     21601     21604     21598     21597     21596     21601
     21599     21597     21596     21601     21600     21597     21596     21601
     21601     21596     21594     21620     21601     21604     21607     21608
     21601     21604     21607     21609     21602     21601     21604     21605
     21602     21601     21604     21606     21602     21601     21604     21607
     21603     21601     21604     21605     21603     21601     21604     21606
     21603     21601     21604     21607     21604     21607     21609     21610
     21604     21607     21609     21614     21605     21604     21607     21608
     21605     21604     21607     21609     21606     21604     21607     21608
     21606     21604     21607     21609     21607     21609     21610     21611
     21607     21609     21610     21612     21607     21609     21610     21613
     21607     21609     21614     21615     21607     21609     21614     21616
     21607     21609     21614     21617     21608     21607     21609     21610
     21608     21607     21609     21614     21609     21614     21617     21618
     21609     21614     21617     21619     21610     21609     21614     21615
     21610     21609     21614     21616     21610     21609     21614     21617
     21611     21610     21609     21614     21612     21610     21609     21614
     21613     21610     21609     21614     21615     21614     21617     21618
     21615     21614     21617     21619     21616     21614     21617     21618
     21616     21614     21617     21619     21620     21626     21629     21630
     21620     21626     21629     21631     21620     21626     21629     21632
     21621     21620     21622     21623     21621     21620     21622     21624
     21621     21620     21622     21625     21621     21620     21626     21627
     21621     21620     21626     21628     21621     21620     21626     21629
     21622     21620     21626     21627     21622     21620     21626     21628
     21622     21620     21626     21629     21623     21622     21620     21626
     21624     21622     21620     21626     21625     21622     21620     21626
     21626     21629     21632     21633     21626     21629     21632     21634
     21626     21629     21632     21635     21627     21626     21629     21630
     21627     21626     21629     21631     21627     21626     21629     21632
     21628     21626     21629     21630     21628     21626     21629     21631
     21628     21626     21629     21632     21629     21632     21635     21636
     21629     21632     21635     21637     21629     21632     21635     21641
     21630     21629     21632     21633     21630     21629     21632     21634
     21630     21629     21632     21635     21631     21629     21632     21633
     21631     21629     21632     21634     21631     21629     21632     21635
     21632     21635     21637     21638     21632     21635     21637     21639
     21632     21635     21637     21640     21632     21635     21641     21642
     21632     21635     21641     21643     21632     21635     21641     21644
     21633     21632     21635     21636     21633     21632     21635     21637
     21633     21632     21635     21641     21634     21632     21635     21636
     21634     21632     21635     21637     21634     21632     21635     21641
     21636     21635     21637     21638     21636     21635     21637     21639
     21636     21635     21637     21640     21636     21635     21641     21642
     21636     21635     21641     21643     21636     21635     21641     21644
     21637     21635     21641     21642     21637     21635     21641     21643
     21637     21635     21641     21644     21638     21637     21635     21641
     21639     21637     21635     21641     21640     21637     21635     21641
     21645     21646     21661     21662     21645     21646     21661     21663
     21645     21646     21661     21667     21646     21645     21649     21650
     21646     21645     21649     21651     21646     21645     21649     21652
     21646     21645     21653     21654     21646     21645     21653     21655
     21646     21645     21653     21656     21646     21645     21657     21658
     21646     21645     21657     21659     21646     21645     21657     21660
     21646     21661     21667     21664     21647     21646     21645     21649
     21647     21646     21645     21653     21647     21646     21645     21657
     21647     21646     21661     21662     21647     21646     21661     21663
     21647     21646     21661     21667     21648     21646     21645     21649
     21648     21646     21645     21653     21648     21646     21645     21657
     21648     21646     21661     21662     21648     21646     21661     21663
     21648     21646     21661     21667     21649     21645     21646     21661
     21649     21645     21653     21654     21649     21645     21653     21655
     21649     21645     21653     21656     21649     21645     21657     21658
     21649     21645     21657     21659     21649     21645     21657     21660
     21650     21649     21645     21653     21650     21649     21645     21657
     21651     21649     21645     21653     21651     21649     21645     21657
     21652     21649     21645     21653     21652     21649     21645     21657
     21653     21645     21646     21661     21653     21645     21657     21658
     21653     21645     21657     21659     21653     21645     21657     21660
     21654     21653     21645     21657     21655     21653     21645     21657
     21656     21653     21645     21657     21657     21645     21646     21661
     21661     21667     21664     21665     21661     21667     21664     21666
     21661     21667     21664     21668     21662     21661     21667     21664
     21663     21661     21667     21664     21664     21668     21669     21670
     21664     21668     21669     21671     21664     21668     21669     21672
     21665     21664     21668     21669     21666     21664     21668     21669
     21667     21664     21668     21669     21668     21669     21672     21673
     21668     21669     21672     21674     21668     21669     21672     21680
     21669     21672     21674     21675     21669     21672     21680     21681
     21669     21672     21680     21682     21669     21672     21680     21683
     21670     21669     21672     21673     21670     21669     21672     21674
     21670     21669     21672     21680     21671     21669     21672     21673
     21671     21669     21672     21674     21671     21669     21672     21680
     21672     21674     21675     21676     21672     21674     21675     21677
     21672     21680     21683     21684     21673     21672     21674     21675
     21673     21672     21680     21681     21673     21672     21680     21682
     21673     21672     21680     21683     21674     21672     21680     21681
     21674     21672     21680     21682     21674     21672     21680     21683
     21674     21675     21677     21678     21674     21675     21677     21679
     21674     21675     21677     21689     21675     21674     21672     21680
     21675     21677     21689     21690     21675     21677     21689     21691
     21675     21677     21689     21692     21676     21675     21677     21678
     21676     21675     21677     21679     21676     21675     21677     21689
     21677     21689     21692     21693     21677     21689     21692     21694
     21677     21689     21692     21695     21678     21677     21689     21690
     21678     21677     21689     21691     21678     21677     21689     21692
     21679     21677     21689     21690     21679     21677     21689     21691
     21679     21677     21689     21692     21680     21683     21684     21685
     21680     21683     21684     21686     21681     21680     21683     21684
     21682     21680     21683     21684     21683     21684     21686     21687
     21683     21684     21686     21688     21683     21684     21686     21736
     21684     21686     21736     21737     21684     21686     21736     21738
     21684     21686     21736     21739     21685     21684     21686     21687
     21685     21684     21686     21688     21685     21684     21686     21736
     21686     21736     21739     21740     21686     21736     21739     21741
     21686     21736     21739     21742     21687     21686     21736     21737
     21687     21686     21736     21738     21687     21686     21736     21739
     21688     21686     21736     21737     21688     21686     21736     21738
     21688     21686     21736     21739     21689     21692     21695     21696
     21689     21692     21695     21697     21689     21692     21695     21698
     21690     21689     21692     21693     21690     21689     21692     21694
     21690     21689     21692     21695     21691     21689     21692     21693
     21691     21689     21692     21694     21691     21689     21692     21695
     21692     21695     21698     21699     21692     21695     21698     21700
     21692     21695     21698     21701     21693     21692     21695     21696
     21693     21692     21695     21697     21693     21692     21695     21698
     21694     21692     21695     21696     21694     21692     21695     21697
     21694     21692     21695     21698     21695     21698     21701     21702
     21695     21698     21701     21703     21695     21698     21701     21704
     21696     21695     21698     21699     21696     21695     21698     21700
     21696     21695     21698     21701     21697     21695     21698     21699
     21697     21695     21698     21700     21697     21695     21698     21701
     21698     21701     21704     21705     21698     21701     21704     21706
     21698     21701     21704     21707     21699     21698     21701     21702
     21699     21698     21701     21703     21699     21698     21701     21704
     21700     21698     21701     21702     21700     21698     21701     21703
     21700     21698     21701     21704     21701     21704     21707     21708
     21701     21704     21707     21709     21702     21701     21704     21705
     21702     21701     21704     21706     21702     21701     21704     21707
     21703     21701     21704     21705     21703     21701     21704     21706
     21703     21701     21704     21707     21704     21707     21709     21710
     21704     21707     21709     21711     21705     21704     21707     21708
     21705     21704     21707     21709     21706     21704     21707     21708
     21706     21704     21707     21709     21707     21709     21711     21712
     21707     21709     21711     21713     21707     21709     21711     21714
     21708     21707     21709     21710     21708     21707     21709     21711
     21709     21711     21714     21715     21709     21711     21714     21716
     21709     21711     21714     21717     21710     21709     21711     21712
     21710     21709     21711     21713     21710     21709     21711     21714
     21711     21714     21717     21718     21711     21714     21717     21719
     21711     21714     21717     21720     21712     21711     21714     21715
     21712     21711     21714     21716     21712     21711     21714     21717
     21713     21711     21714     21715     21713     21711     21714     21716
     21713     21711     21714     21717     21714     21717     21720     21721
     21714     21717     21720     21722     21714     21717     21720     21723
     21715     21714     21717     21718     21715     21714     21717     21719
     21715     21714     21717     21720     21716     21714     21717     21718
     21716     21714     21717     21719     21716     21714     21717     21720
     21717     21720     21723     21724     21717     21720     21723     21725
     21717     21720     21723     21726     21718     21717     21720     21721
     21718     21717     21720     21722     21718     21717     21720     21723
     21719     21717     21720     21721     21719     21717     21720     21722
     21719     21717     21720     21723     21720     21723     21726     21727
     21720     21723     21726     21728     21720     21723     21726     21729
     21721     21720     21723     21724     21721     21720     21723     21725
     21721     21720     21723     21726     21722     21720     21723     21724
     21722     21720     21723     21725     21722     21720     21723     21726
     21723     21726     21729     21730     21723     21726     21729     21731
     21723     21726     21729     21732     21724     21723     21726     21727
     21724     21723     21726     21728     21724     21723     21726     21729
     21725     21723     21726     21727     21725     21723     21726     21728
     21725     21723     21726     21729     21726     21729     21732     21733
     21726     21729     21732     21734     21726     21729     21732     21735
     21727     21726     21729     21730     21727     21726     21729     21731
     21727     21726     21729     21732     21728     21726     21729     21730
     21728     21726     21729     21731     21728     21726     21729     21732
     21730     21729     21732     21733     21730     21729     21732     21734
     21730     21729     21732     21735     21731     21729     21732     21733
     21731     21729     21732     21734     21731     21729     21732     21735
     21736     21739     21742     21743     21736     21739     21742     21744
     21736     21739     21742     21745     21737     21736     21739     21740
     21737     21736     21739     21741     21737     21736     21739     21742
     21738     21736     21739     21740     21738     21736     21739     21741
     21738     21736     21739     21742     21739     21742     21745     21746
     21739     21742     21745     21747     21739     21742     21745     21748
     21740     21739     21742     21743     21740     21739     21742     21744
     21740     21739     21742     21745     21741     21739     21742     21743
     21741     21739     21742     21744     21741     21739     21742     21745
     21742     21745     21748     21749     21742     21745     21748     21750
     21742     21745     21748     21751     21743     21742     21745     21746
     21743     21742     21745     21747     21743     21742     21745     21748
     21744     21742     21745     21746     21744     21742     21745     21747
     21744     21742     21745     21748     21745     21748     21751     21752
     21745     21748     21751     21753     21745     21748     21751     21754
     21746     21745     21748     21749     21746     21745     21748     21750
     21746     21745     21748     21751     21747     21745     21748     21749
     21747     21745     21748     21750     21747     21745     21748     21751
     21748     21751     21754     21755     21748     21751     21754     21756
     21748     21751     21754     21757     21749     21748     21751     21752
     21749     21748     21751     21753     21749     21748     21751     21754
     21750     21748     21751     21752     21750     21748     21751     21753
     21750     21748     21751     21754     21751     21754     21757     21758
     21751     21754     21757     21759     21751     21754     21757     21760
     21752     21751     21754     21755     21752     21751     21754     21756
     21752     21751     21754     21757     21753     21751     21754     21755
     21753     21751     21754     21756     21753     21751     21754     21757
     21754     21757     21760     21761     21754     21757     21760     21762
     21754     21757     21760     21763     21755     21754     21757     21758
     21755     21754     21757     21759     21755     21754     21757     21760
     21756     21754     21757     21758     21756     21754     21757     21759
     21756     21754     21757     21760     21757     21760     21763     21764
     21757     21760     21763     21765     21757     21760     21763     21766
     21758     21757     21760     21761     21758     21757     21760     21762
     21758     21757     21760     21763     21759     21757     21760     21761
     21759     21757     21760     21762     21759     21757     21760     21763
     21760     21763     21766     21767     21760     21763     21766     21768
     21760     21763     21766     21769     21761     21760     21763     21764
     21761     21760     21763     21765     21761     21760     21763     21766
     21762     21760     21763     21764     21762     21760     21763     21765
     21762     21760     21763     21766     21763     21766     21769     21770
     21763     21766     21769     21771     21763     21766     21769     21772
     21764     21763     21766     21767     21764     21763     21766     21768
     21764     21763     21766     21769     21765     21763     21766     21767
     21765     21763     21766     21768     21765     21763     21766     21769
     21766     21769     21772     21773     21766     21769     21772     21774
     21766     21769     21772     21775     21767     21766     21769     21770
     21767     21766     21769     21771     21767     21766     21769     21772
     21768     21766     21769     21770     21768     21766     21769     21771
     21768     21766     21769     21772     21769     21772     21775     21776
     21769     21772     21775     21777     21769     21772     21775     21778
     21770     21769     21772     21773     21770     21769     21772     21774
     21770     21769     21772     21775     21771     21769     21772     21773
     21771     21769     21772     21774     21771     21769     21772     21775
     21773     21772     21775     21776     21773     21772     21775     21777
     21773     21772     21775     21778     21774     21772     21775     21776
     21774     21772     21775     21777     21774     21772     21775     21778
     21779     21783     21786     21787     21779     21783     21786     21788
     21779     21783     21786     21792     21780     21779     21783     21784
     21780     21779     21783     21785     21780     21779     21783     21786
     21781     21779     21783     21784     21781     21779     21783     21785
     21781     21779     21783     21786     21782     21779     21783     21784
     21782     21779     21783     21785     21782     21779     21783     21786
     21783     21786     21792     21789     21784     21783     21786     21787
     21784     21783     21786     21788     21784     21783     21786     21792
     21785     21783     21786     21787     21785     21783     21786     21788
     21785     21783     21786     21792     21786     21792     21789     21790
     21786     21792     21789     21791     21786     21792     21789     21793
     21787     21786     21792     21789     21788     21786     21792     21789
     21789     21793     21794     21795     21789     21793     21794     21796
     21789     21793     21794     21797     21790     21789     21793     21794
     21791     21789     21793     21794     21792     21789     21793     21794
     21793     21794     21797     21798     21793     21794     21797     21799
     21793     21794     21797     21805     21794     21797     21799     21800
     21794     21797     21805     21806     21794     21797     21805     21807
     21794     21797     21805     21808     21795     21794     21797     21798
     21795     21794     21797     21799     21795     21794     21797     21805
     21796     21794     21797     21798     21796     21794     21797     21799
     21796     21794     21797     21805     21797     21799     21800     21801
     21797     21799     21800     21802     21797     21805     21808     21809
     21798     21797     21799     21800     21798     21797     21805     21806
     21798     21797     21805     21807     21798     21797     21805     21808
     21799     21797     21805     21806     21799     21797     21805     21807
     21799     21797     21805     21808     21799     21800     21802     21803
     21799     21800     21802     21804     21799     21800     21802     21814
     21800     21799     21797     21805     21800     21802     21814     21815
     21800     21802     21814     21816     21800     21802     21814     21817
     21801     21800     21802     21803     21801     21800     21802     21804
     21801     21800     21802     21814     21802     21814     21817     21818
     21802     21814     21817     21819     21802     21814     21817     21820
     21803     21802     21814     21815     21803     21802     21814     21816
     21803     21802     21814     21817     21804     21802     21814     21815
     21804     21802     21814     21816     21804     21802     21814     21817
     21805     21808     21809     21810     21805     21808     21809     21811
     21806     21805     21808     21809     21807     21805     21808     21809
     21808     21809     21811     21812     21808     21809     21811     21813
     21808     21809     21811     21861     21809     21811     21861     21862
     21809     21811     21861     21863     21809     21811     21861     21864
     21810     21809     21811     21812     21810     21809     21811     21813
     21810     21809     21811     21861     21811     21861     21864     21865
     21811     21861     21864     21866     21811     21861     21864     21867
     21812     21811     21861     21862     21812     21811     21861     21863
     21812     21811     21861     21864     21813     21811     21861     21862
     21813     21811     21861     21863     21813     21811     21861     21864
     21814     21817     21820     21821     21814     21817     21820     21822
     21815     21814     21817     21818     21815     21814     21817     21819
     21815     21814     21817     21820     21816     21814     21817     21818
     21816     21814     21817     21819     21816     21814     21817     21820
     21817     21820     21822     21823     21817     21820     21822     21824
     21818     21817     21820     21821     21818     21817     21820     21822
     21819     21817     21820     21821     21819     21817     21820     21822
     21820     21822     21824     21825     21820     21822     21824     21826
     21820     21822     21824     21827     21821     21820     21822     21823
     21821     21820     21822     21824     21822     21824     21827     21828
     21822     21824     21827     21829     21823     21822     21824     21825
     21823     21822     21824     21826     21823     21822     21824     21827
     21824     21827     21829     21830     21824     21827     21829     21831
     21825     21824     21827     21828     21825     21824     21827     21829
     21826     21824     21827     21828     21826     21824     21827     21829
     21827     21829     21831     21832     21827     21829     21831     21833
     21827     21829     21831     21834     21828     21827     21829     21830
     21828     21827     21829     21831     21829     21831     21834     21835
     21829     21831     21834     21836     21830     21829     21831     21832
     21830     21829     21831     21833     21830     21829     21831     21834
     21831     21834     21836     21837     21831     21834     21836     21838
     21832     21831     21834     21835     21832     21831     21834     21836
     21833     21831     21834     21835     21833     21831     21834     21836
     21834     21836     21838     21839     21834     21836     21838     21840
     21834     21836     21838     21841     21835     21834     21836     21837
     21835     21834     21836     21838     21836     21838     21841     21842
     21836     21838     21841     21843     21837     21836     21838     21839
     21837     21836     21838     21840     21837     21836     21838     21841
     21838     21841     21843     21844     21838     21841     21843     21845
     21839     21838     21841     21842     21839     21838     21841     21843
     21840     21838     21841     21842     21840     21838     21841     21843
     21841     21843     21845     21846     21841     21843     21845     21847
     21841     21843     21845     21848     21842     21841     21843     21844
     21842     21841     21843     21845     21843     21845     21848     21849
     21843     21845     21848     21850     21843     21845     21848     21851
     21844     21843     21845     21846     21844     21843     21845     21847
     21844     21843     21845     21848     21845     21848     21851     21852
     21845     21848     21851     21853     21845     21848     21851     21854
     21846     21845     21848     21849     21846     21845     21848     21850
     21846     21845     21848     21851     21847     21845     21848     21849
     21847     21845     21848     21850     21847     21845     21848     21851
     21848     21851     21854     21855     21848     21851     21854     21856
     21848     21851     21854     21857     21849     21848     21851     21852
     21849     21848     21851     21853     21849     21848     21851     21854
     21850     21848     21851     21852     21850     21848     21851     21853
     21850     21848     21851     21854     21851     21854     21857     21858
     21851     21854     21857     21859     21851     21854     21857     21860
     21852     21851     21854     21855     21852     21851     21854     21856
     21852     21851     21854     21857     21853     21851     21854     21855
     21853     21851     21854     21856     21853     21851     21854     21857
     21855     21854     21857     21858     21855     21854     21857     21859
     21855     21854     21857     21860     21856     21854     21857     21858
     21856     21854     21857     21859     21856     21854     21857     21860
     21861     21864     21867     21868     21861     21864     21867     21869
     21861     21864     21867     21870     21862     21861     21864     21865
     21862     21861     21864     21866     21862     21861     21864     21867
     21863     21861     21864     21865     21863     21861     21864     21866
     21863     21861     21864     21867     21864     21867     21870     21871
     21864     21867     21870     21872     21864     21867     21870     21873
     21865     21864     21867     21868     21865     21864     21867     21869
     21865     21864     21867     21870     21866     21864     21867     21868
     21866     21864     21867     21869     21866     21864     21867     21870
     21867     21870     21873     21874     21867     21870     21873     21875
     21867     21870     21873     21876     21868     21867     21870     21871
     21868     21867     21870     21872     21868     21867     21870     21873
     21869     21867     21870     21871     21869     21867     21870     21872
     21869     21867     21870     21873     21870     21873     21876     21877
     21870     21873     21876     21878     21870     21873     21876     21879
     21871     21870     21873     21874     21871     21870     21873     21875
     21871     21870     21873     21876     21872     21870     21873     21874
     21872     21870     21873     21875     21872     21870     21873     21876
     21873     21876     21879     21880     21873     21876     21879     21881
     21873     21876     21879     21882     21874     21873     21876     21877
     21874     21873     21876     21878     21874     21873     21876     21879
     21875     21873     21876     21877     21875     21873     21876     21878
     21875     21873     21876     21879     21876     21879     21882     21883
     21876     21879     21882     21884     21876     21879     21882     21885
     21877     21876     21879     21880     21877     21876     21879     21881
     21877     21876     21879     21882     21878     21876     21879     21880
     21878     21876     21879     21881     21878     21876     21879     21882
     21879     21882     21885     21886     21879     21882     21885     21887
     21879     21882     21885     21888     21880     21879     21882     21883
     21880     21879     21882     21884     21880     21879     21882     21885
     21881     21879     21882     21883     21881     21879     21882     21884
     21881     21879     21882     21885     21882     21885     21888     21889
     21882     21885     21888     21890     21882     21885     21888     21891
     21883     21882     21885     21886     21883     21882     21885     21887
     21883     21882     21885     21888     21884     21882     21885     21886
     21884     21882     21885     21887     21884     21882     21885     21888
     21885     21888     21891     21892     21885     21888     21891     21893
     21885     21888     21891     21894     21886     21885     21888     21889
     21886     21885     21888     21890     21886     21885     21888     21891
     21887     21885     21888     21889     21887     21885     21888     21890
     21887     21885     21888     21891     21888     21891     21894     21895
     21888     21891     21894     21896     21888     21891     21894     21897
     21889     21888     21891     21892     21889     21888     21891     21893
     21889     21888     21891     21894     21890     21888     21891     21892
     21890     21888     21891     21893     21890     21888     21891     21894
     21891     21894     21897     21898     21891     21894     21897     21899
     21891     21894     21897     21900     21892     21891     21894     21895
     21892     21891     21894     21896     21892     21891     21894     21897
     21893     21891     21894     21895     21893     21891     21894     21896
     21893     21891     21894     21897     21894     21897     21900     21901
     21894     21897     21900     21902     21894     21897     21900     21903
     21895     21894     21897     21898     21895     21894     21897     21899
     21895     21894     21897     21900     21896     21894     21897     21898
     21896     21894     21897     21899     21896     21894     21897     21900
     21897     21900     21903     21904     21897     21900     21903     21905
     21897     21900     21903     21906     21898     21897     21900     21901
     21898     21897     21900     21902     21898     21897     21900     21903
     21899     21897     21900     21901     21899     21897     21900     21902
     21899     21897     21900     21903     21900     21903     21906     21907
     21900     21903     21906     21908     21900     21903     21906     21909
     21901     21900     21903     21904     21901     21900     21903     21905
     21901     21900     21903     21906     21902     21900     21903     21904
     21902     21900     21903     21905     21902     21900     21903     21906
     21904     21903     21906     21907     21904     21903     21906     21908
     21904     21903     21906     21909     21905     21903     21906     21907
     21905     21903     21906     21908     21905     21903     21906     21909
     21910     21911     21926     21927     21910     21911     21926     21928
     21910     21911     21926     21932     21911     21910     21914     21915
     21911     21910     21914     21916     21911     21910     21914     21917
     21911     21910     21918     21919     21911     21910     21918     21920
     21911     21910     21918     21921     21911     21910     21922     21923
     21911     21910     21922     21924     21911     21910     21922     21925
     21911     21926     21932     21929     21912     21911     21910     21914
     21912     21911     21910     21918     21912     21911     21910     21922
     21912     21911     21926     21927     21912     21911     21926     21928
     21912     21911     21926     21932     21913     21911     21910     21914
     21913     21911     21910     21918     21913     21911     21910     21922
     21913     21911     21926     21927     21913     21911     21926     21928
     21913     21911     21926     21932     21914     21910     21911     21926
     21914     21910     21918     21919     21914     21910     21918     21920
     21914     21910     21918     21921     21914     21910     21922     21923
     21914     21910     21922     21924     21914     21910     21922     21925
     21915     21914     21910     21918     21915     21914     21910     21922
     21916     21914     21910     21918     21916     21914     21910     21922
     21917     21914     21910     21918     21917     21914     21910     21922
     21918     21910     21911     21926     21918     21910     21922     21923
     21918     21910     21922     21924     21918     21910     21922     21925
     21919     21918     21910     21922     21920     21918     21910     21922
     21921     21918     21910     21922     21922     21910     21911     21926
     21926     21932     21929     21930     21926     21932     21929     21931
     21926     21932     21929     21933     21927     21926     21932     21929
     21928     21926     21932     21929     21929     21933     21934     21935
     21929     21933     21934     21936     21929     21933     21934     21937
     21930     21929     21933     21934     21931     21929     21933     21934
     21932     21929     21933     21934     21933     21934     21937     21938
     21933     21934     21937     21939     21933     21934     21937     21945
     21934     21937     21939     21940     21934     21937     21945     21946
     21934     21937     21945     21947     21934     21937     21945     21948
     21935     21934     21937     21938     21935     21934     21937     21939
     21935     21934     21937     21945     21936     21934     21937     21938
     21936     21934     21937     21939     21936     21934     21937     21945
     21937     21939     21940     21941     21937     21939     21940     21942
     21937     21945     21948     21949     21938     21937     21939     21940
     21938     21937     21945     21946     21938     21937     21945     21947
     21938     21937     21945     21948     21939     21937     21945     21946
     21939     21937     21945     21947     21939     21937     21945     21948
     21939     21940     21942     21943     21939     21940     21942     21944
     21939     21940     21942     21954     21940     21939     21937     21945
     21940     21942     21954     21955     21940     21942     21954     21956
     21940     21942     21954     21957     21941     21940     21942     21943
     21941     21940     21942     21944     21941     21940     21942     21954
     21942     21954     21957     21958     21942     21954     21957     21959
     21942     21954     21957     21960     21943     21942     21954     21955
     21943     21942     21954     21956     21943     21942     21954     21957
     21944     21942     21954     21955     21944     21942     21954     21956
     21944     21942     21954     21957     21945     21948     21949     21950
     21945     21948     21949     21951     21946     21945     21948     21949
     21947     21945     21948     21949     21948     21949     21951     21952
     21948     21949     21951     21953     21948     21949     21951     22001
     21949     21951     22001     22002     21949     21951     22001     22003
     21949     21951     22001     22004     21950     21949     21951     21952
     21950     21949     21951     21953     21950     21949     21951     22001
     21951     22001     22004     22005     21951     22001     22004     22006
     21951     22001     22004     22007     21952     21951     22001     22002
     21952     21951     22001     22003     21952     21951     22001     22004
     21953     21951     22001     22002     21953     21951     22001     22003
     21953     21951     22001     22004     21954     21957     21960     21961
     21954     21957     21960     21962     21955     21954     21957     21958
     21955     21954     21957     21959     21955     21954     21957     21960
     21956     21954     21957     21958     21956     21954     21957     21959
     21956     21954     21957     21960     21957     21960     21962     21963
     21957     21960     21962     21964     21958     21957     21960     21961
     21958     21957     21960     21962     21959     21957     21960     21961
     21959     21957     21960     21962     21960     21962     21964     21965
     21960     21962     21964     21966     21960     21962     21964     21967
     21961     21960     21962     21963     21961     21960     21962     21964
     21962     21964     21967     21968     21962     21964     21967     21969
     21963     21962     21964     21965     21963     21962     21964     21966
     21963     21962     21964     21967     21964     21967     21969     21970
     21964     21967     21969     21971     21965     21964     21967     21968
     21965     21964     21967     21969     21966     21964     21967     21968
     21966     21964     21967     21969     21967     21969     21971     21972
     21967     21969     21971     21973     21967     21969     21971     21974
     21968     21967     21969     21970     21968     21967     21969     21971
     21969     21971     21974     21975     21969     21971     21974     21976
     21970     21969     21971     21972     21970     21969     21971     21973
     21970     21969     21971     21974     21971     21974     21976     21977
     21971     21974     21976     21978     21972     21971     21974     21975
     21972     21971     21974     21976     21973     21971     21974     21975
     21973     21971     21974     21976     21974     21976     21978     21979
     21974     21976     21978     21980     21974     21976     21978     21981
     21975     21974     21976     21977     21975     21974     21976     21978
     21976     21978     21981     21982     21976     21978     21981     21983
     21977     21976     21978     21979     21977     21976     21978     21980
     21977     21976     21978     21981     21978     21981     21983     21984
     21978     21981     21983     21985     21979     21978     21981     21982
     21979     21978     21981     21983     21980     21978     21981     21982
     21980     21978     21981     21983     21981     21983     21985     21986
     21981     21983     21985     21987     21981     21983     21985     21988
     21982     21981     21983     21984     21982     21981     21983     21985
     21983     21985     21988     21989     21983     21985     21988     21990
     21983     21985     21988     21991     21984     21983     21985     21986
     21984     21983     21985     21987     21984     21983     21985     21988
     21985     21988     21991     21992     21985     21988     21991     21993
     21985     21988     21991     21994     21986     21985     21988     21989
     21986     21985     21988     21990     21986     21985     21988     21991
     21987     21985     21988     21989     21987     21985     21988     21990
     21987     21985     21988     21991     21988     21991     21994     21995
     21988     21991     21994     21996     21988     21991     21994     21997
     21989     21988     21991     21992     21989     21988     21991     21993
     21989     21988     21991     21994     21990     21988     21991     21992
     21990     21988     21991     21993     21990     21988     21991     21994
     21991     21994     21997     21998     21991     21994     21997     21999
     21991     21994     21997     22000     21992     21991     21994     21995
     21992     21991     21994     21996     21992     21991     21994     21997
     21993     21991     21994     21995     21993     21991     21994     21996
     21993     21991     21994     21997     21995     21994     21997     21998
     21995     21994     21997     21999     21995     21994     21997     22000
     21996     21994     21997     21998     21996     21994     21997     21999
     21996     21994     21997     22000     22001     22004     22007     22008
     22001     22004     22007     22009     22001     22004     22007     22010
     22002     22001     22004     22005     22002     22001     22004     22006
     22002     22001     22004     22007     22003     22001     22004     22005
     22003     22001     22004     22006     22003     22001     22004     22007
     22004     22007     22010     22011     22004     22007     22010     22012
     22004     22007     22010     22013     22005     22004     22007     22008
     22005     22004     22007     22009     22005     22004     22007     22010
     22006     22004     22007     22008     22006     22004     22007     22009
     22006     22004     22007     22010     22007     22010     22013     22014
     22007     22010     22013     22015     22007     22010     22013     22016
     22008     22007     22010     22011     22008     22007     22010     22012
     22008     22007     22010     22013     22009     22007     22010     22011
     22009     22007     22010     22012     22009     22007     22010     22013
     22010     22013     22016     22017     22010     22013     22016     22018
     22010     22013     22016     22019     22011     22010     22013     22014
     22011     22010     22013     22015     22011     22010     22013     22016
     22012     22010     22013     22014     22012     22010     22013     22015
     22012     22010     22013     22016     22013     22016     22019     22020
     22013     22016     22019     22021     22013     22016     22019     22022
     22014     22013     22016     22017     22014     22013     22016     22018
     22014     22013     22016     22019     22015     22013     22016     22017
     22015     22013     22016     22018     22015     22013     22016     22019
     22016     22019     22022     22023     22016     22019     22022     22024
     22016     22019     22022     22025     22017     22016     22019     22020
     22017     22016     22019     22021     22017     22016     22019     22022
     22018     22016     22019     22020     22018     22016     22019     22021
     22018     22016     22019     22022     22019     22022     22025     22026
     22019     22022     22025     22027     22019     22022     22025     22028
     22020     22019     22022     22023     22020     22019     22022     22024
     22020     22019     22022     22025     22021     22019     22022     22023
     22021     22019     22022     22024     22021     22019     22022     22025
     22022     22025     22028     22029     22022     22025     22028     22030
     22022     22025     22028     22031     22023     22022     22025     22026
     22023     22022     22025     22027     22023     22022     22025     22028
     22024     22022     22025     22026     22024     22022     22025     22027
     22024     22022     22025     22028     22025     22028     22031     22032
     22025     22028     22031     22033     22025     22028     22031     22034
     22026     22025     22028     22029     22026     22025     22028     22030
     22026     22025     22028     22031     22027     22025     22028     22029
     22027     22025     22028     22030     22027     22025     22028     22031
     22028     22031     22034     22035     22028     22031     22034     22036
     22028     22031     22034     22037     22029     22028     22031     22032
     22029     22028     22031     22033     22029     22028     22031     22034
     22030     22028     22031     22032     22030     22028     22031     22033
     22030     22028     22031     22034     22031     22034     22037     22038
     22031     22034     22037     22039     22031     22034     22037     22040
     22032     22031     22034     22035     22032     22031     22034     22036
     22032     22031     22034     22037     22033     22031     22034     22035
     22033     22031     22034     22036     22033     22031     22034     22037
     22034     22037     22040     22041     22034     22037     22040     22042
     22034     22037     22040     22043     22035     22034     22037     22038
     22035     22034     22037     22039     22035     22034     22037     22040
     22036     22034     22037     22038     22036     22034     22037     22039
     22036     22034     22037     22040     22037     22040     22043     22044
     22037     22040     22043     22045     22037     22040     22043     22046
     22038     22037     22040     22041     22038     22037     22040     22042
     22038     22037     22040     22043     22039     22037     22040     22041
     22039     22037     22040     22042     22039     22037     22040     22043
     22040     22043     22046     22047     22040     22043     22046     22048
     22040     22043     22046     22049     22041     22040     22043     22044
     22041     22040     22043     22045     22041     22040     22043     22046
     22042     22040     22043     22044     22042     22040     22043     22045
     22042     22040     22043     22046     22044     22043     22046     22047
     22044     22043     22046     22048     22044     22043     22046     22049
     22045     22043     22046     22047     22045     22043     22046     22048
     22045     22043     22046     22049     22050     22063     22066     22067
     22050     22063     22066     22068     22050     22063     22066     22072
     22051     22050     22055     22056     22051     22050     22055     22057
     22051     22050     22055     22058     22051     22050     22059     22060
     22051     22050     22059     22061     22051     22050     22059     22062
     22051     22050     22063     22064     22051     22050     22063     22065
     22051     22050     22063     22066     22052     22051     22050     22055
     22052     22051     22050     22059     22052     22051     22050     22063
     22053     22051     22050     22055     22053     22051     22050     22059
     22053     22051     22050     22063     22054     22051     22050     22055
     22054     22051     22050     22059     22054     22051     22050     22063
     22055     22050     22059     22060     22055     22050     22059     22061
     22055     22050     22059     22062     22055     22050     22063     22064
     22055     22050     22063     22065     22055     22050     22063     22066
     22056     22055     22050     22059     22056     22055     22050     22063
     22057     22055     22050     22059     22057     22055     22050     22063
     22058     22055     22050     22059     22058     22055     22050     22063
     22059     22050     22063     22064     22059     22050     22063     22065
     22059     22050     22063     22066     22060     22059     22050     22063
     22061     22059     22050     22063     22062     22059     22050     22063
     22063     22066     22072     22069     22064     22063     22066     22067
     22064     22063     22066     22068     22064     22063     22066     22072
     22065     22063     22066     22067     22065     22063     22066     22068
     22065     22063     22066     22072     22066     22072     22069     22070
     22066     22072     22069     22071     22066     22072     22069     22073
     22067     22066     22072     22069     22068     22066     22072     22069
     22069     22073     22074     22075     22069     22073     22074     22076
     22069     22073     22074     22077     22070     22069     22073     22074
     22071     22069     22073     22074     22072     22069     22073     22074
     22073     22074     22077     22078     22073     22074     22077     22079
     22073     22074     22077     22085     22074     22077     22079     22080
     22074     22077     22085     22086     22074     22077     22085     22087
     22074     22077     22085     22088     22075     22074     22077     22078
     22075     22074     22077     22079     22075     22074     22077     22085
     22076     22074     22077     22078     22076     22074     22077     22079
     22076     22074     22077     22085     22077     22079     22080     22081
     22077     22079     22080     22082     22077     22085     22088     22089
     22078     22077     22079     22080     22078     22077     22085     22086
     22078     22077     22085     22087     22078     22077     22085     22088
     22079     22077     22085     22086     22079     22077     22085     22087
     22079     22077     22085     22088     22079     22080     22082     22083
     22079     22080     22082     22084     22079     22080     22082     22094
     22080     22079     22077     22085     22080     22082     22094     22095
     22080     22082     22094     22096     22080     22082     22094     22097
     22081     22080     22082     22083     22081     22080     22082     22084
     22081     22080     22082     22094     22082     22094     22097     22098
     22082     22094     22097     22099     22082     22094     22097     22100
     22083     22082     22094     22095     22083     22082     22094     22096
     22083     22082     22094     22097     22084     22082     22094     22095
     22084     22082     22094     22096     22084     22082     22094     22097
     22085     22088     22089     22090     22085     22088     22089     22091
     22086     22085     22088     22089     22087     22085     22088     22089
     22088     22089     22091     22092     22088     22089     22091     22093
     22088     22089     22091     22139     22089     22091     22139     22140
     22089     22091     22139     22141     22089     22091     22139     22142
     22090     22089     22091     22092     22090     22089     22091     22093
     22090     22089     22091     22139     22091     22139     22142     22143
     22091     22139     22142     22144     22091     22139     22142     22145
     22092     22091     22139     22140     22092     22091     22139     22141
     22092     22091     22139     22142     22093     22091     22139     22140
     22093     22091     22139     22141     22093     22091     22139     22142
     22094     22097     22100     22101     22094     22097     22100     22102
     22094     22097     22100     22103     22095     22094     22097     22098
     22095     22094     22097     22099     22095     22094     22097     22100
     22096     22094     22097     22098     22096     22094     22097     22099
     22096     22094     22097     22100     22097     22100     22103     22104
     22097     22100     22103     22105     22097     22100     22103     22106
     22098     22097     22100     22101     22098     22097     22100     22102
     22098     22097     22100     22103     22099     22097     22100     22101
     22099     22097     22100     22102     22099     22097     22100     22103
     22100     22103     22106     22107     22100     22103     22106     22108
     22100     22103     22106     22109     22101     22100     22103     22104
     22101     22100     22103     22105     22101     22100     22103     22106
     22102     22100     22103     22104     22102     22100     22103     22105
     22102     22100     22103     22106     22103     22106     22109     22110
     22103     22106     22109     22111     22103     22106     22109     22112
     22104     22103     22106     22107     22104     22103     22106     22108
     22104     22103     22106     22109     22105     22103     22106     22107
     22105     22103     22106     22108     22105     22103     22106     22109
     22106     22109     22112     22113     22106     22109     22112     22114
     22107     22106     22109     22110     22107     22106     22109     22111
     22107     22106     22109     22112     22108     22106     22109     22110
     22108     22106     22109     22111     22108     22106     22109     22112
     22109     22112     22114     22115     22109     22112     22114     22116
     22110     22109     22112     22113     22110     22109     22112     22114
     22111     22109     22112     22113     22111     22109     22112     22114
     22112     22114     22116     22117     22112     22114     22116     22118
     22112     22114     22116     22119     22113     22112     22114     22115
     22113     22112     22114     22116     22114     22116     22119     22120
     22114     22116     22119     22121     22115     22114     22116     22117
     22115     22114     22116     22118     22115     22114     22116     22119
     22116     22119     22121     22122     22116     22119     22121     22123
     22117     22116     22119     22120     22117     22116     22119     22121
     22118     22116     22119     22120     22118     22116     22119     22121
     22119     22121     22123     22124     22119     22121     22123     22125
     22119     22121     22123     22126     22120     22119     22121     22122
     22120     22119     22121     22123     22121     22123     22126     22127
     22121     22123     22126     22128     22121     22123     22126     22129
     22122     22121     22123     22124     22122     22121     22123     22125
     22122     22121     22123     22126     22123     22126     22129     22130
     22123     22126     22129     22131     22123     22126     22129     22132
     22124     22123     22126     22127     22124     22123     22126     22128
     22124     22123     22126     22129     22125     22123     22126     22127
     22125     22123     22126     22128     22125     22123     22126     22129
     22126     22129     22132     22133     22126     22129     22132     22134
     22126     22129     22132     22135     22127     22126     22129     22130
     22127     22126     22129     22131     22127     22126     22129     22132
     22128     22126     22129     22130     22128     22126     22129     22131
     22128     22126     22129     22132     22129     22132     22135     22136
     22129     22132     22135     22137     22129     22132     22135     22138
     22130     22129     22132     22133     22130     22129     22132     22134
     22130     22129     22132     22135     22131     22129     22132     22133
     22131     22129     22132     22134     22131     22129     22132     22135
     22133     22132     22135     22136     22133     22132     22135     22137
     22133     22132     22135     22138     22134     22132     22135     22136
     22134     22132     22135     22137     22134     22132     22135     22138
     22139     22142     22145     22146     22139     22142     22145     22147
     22139     22142     22145     22148     22140     22139     22142     22143
     22140     22139     22142     22144     22140     22139     22142     22145
     22141     22139     22142     22143     22141     22139     22142     22144
     22141     22139     22142     22145     22142     22145     22148     22149
     22142     22145     22148     22150     22142     22145     22148     22151
     22143     22142     22145     22146     22143     22142     22145     22147
     22143     22142     22145     22148     22144     22142     22145     22146
     22144     22142     22145     22147     22144     22142     22145     22148
     22145     22148     22151     22152     22145     22148     22151     22153
     22145     22148     22151     22154     22146     22145     22148     22149
     22146     22145     22148     22150     22146     22145     22148     22151
     22147     22145     22148     22149     22147     22145     22148     22150
     22147     22145     22148     22151     22148     22151     22154     22155
     22148     22151     22154     22156     22148     22151     22154     22157
     22149     22148     22151     22152     22149     22148     22151     22153
     22149     22148     22151     22154     22150     22148     22151     22152
     22150     22148     22151     22153     22150     22148     22151     22154
     22151     22154     22157     22158     22151     22154     22157     22159
     22151     22154     22157     22160     22152     22151     22154     22155
     22152     22151     22154     22156     22152     22151     22154     22157
     22153     22151     22154     22155     22153     22151     22154     22156
     22153     22151     22154     22157     22154     22157     22160     22161
     22154     22157     22160     22162     22154     22157     22160     22163
     22155     22154     22157     22158     22155     22154     22157     22159
     22155     22154     22157     22160     22156     22154     22157     22158
     22156     22154     22157     22159     22156     22154     22157     22160
     22157     22160     22163     22164     22157     22160     22163     22165
     22157     22160     22163     22166     22158     22157     22160     22161
     22158     22157     22160     22162     22158     22157     22160     22163
     22159     22157     22160     22161     22159     22157     22160     22162
     22159     22157     22160     22163     22160     22163     22166     22167
     22160     22163     22166     22168     22160     22163     22166     22169
     22161     22160     22163     22164     22161     22160     22163     22165
     22161     22160     22163     22166     22162     22160     22163     22164
     22162     22160     22163     22165     22162     22160     22163     22166
     22163     22166     22169     22170     22163     22166     22169     22171
     22163     22166     22169     22172     22164     22163     22166     22167
     22164     22163     22166     22168     22164     22163     22166     22169
     22165     22163     22166     22167     22165     22163     22166     22168
     22165     22163     22166     22169     22166     22169     22172     22173
     22166     22169     22172     22174     22166     22169     22172     22175
     22167     22166     22169     22170     22167     22166     22169     22171
     22167     22166     22169     22172     22168     22166     22169     22170
     22168     22166     22169     22171     22168     22166     22169     22172
     22169     22172     22175     22176     22169     22172     22175     22177
     22169     22172     22175     22178     22170     22169     22172     22173
     22170     22169     22172     22174     22170     22169     22172     22175
     22171     22169     22172     22173     22171     22169     22172     22174
     22171     22169     22172     22175     22172     22175     22178     22179
     22172     22175     22178     22180     22172     22175     22178     22181
     22173     22172     22175     22176     22173     22172     22175     22177
     22173     22172     22175     22178     22174     22172     22175     22176
     22174     22172     22175     22177     22174     22172     22175     22178
     22175     22178     22181     22182     22175     22178     22181     22183
     22175     22178     22181     22184     22176     22175     22178     22179
     22176     22175     22178     22180     22176     22175     22178     22181
     22177     22175     22178     22179     22177     22175     22178     22180
     22177     22175     22178     22181     22178     22181     22184     22185
     22178     22181     22184     22186     22178     22181     22184     22187
     22179     22178     22181     22182     22179     22178     22181     22183
     22179     22178     22181     22184     22180     22178     22181     22182
     22180     22178     22181     22183     22180     22178     22181     22184
     22182     22181     22184     22185     22182     22181     22184     22186
     22182     22181     22184     22187     22183     22181     22184     22185
     22183     22181     22184     22186     22183     22181     22184     22187
     22188     22192     22194     22195     22188     22192     22194     22196
     22188     22192     22197     22198     22188     22192     22197     22199
     22188     22192     22197     22203     22189     22188     22192     22193
     22189     22188     22192     22194     22189     22188     22192     22197
     22190     22188     22192     22193     22190     22188     22192     22194
     22190     22188     22192     22197     22191     22188     22192     22193
     22191     22188     22192     22194     22191     22188     22192     22197
     22192     22197     22203     22200     22193     22192     22194     22195
     22193     22192     22194     22196     22193     22192     22197     22198
     22193     22192     22197     22199     22193     22192     22197     22203
     22194     22192     22197     22198     22194     22192     22197     22199
     22194     22192     22197     22203     22195     22194     22192     22197
     22196     22194     22192     22197     22197     22203     22200     22201
     22197     22203     22200     22202     22197     22203     22200     22204
     22198     22197     22203     22200     22199     22197     22203     22200
     22200     22204     22205     22206     22200     22204     22205     22207
     22200     22204     22205     22208     22201     22200     22204     22205
     22202     22200     22204     22205     22203     22200     22204     22205
     22204     22205     22208     22209     22204     22205     22208     22210
     22204     22205     22208     22216     22205     22208     22210     22211
     22205     22208     22216     22217     22205     22208     22216     22218
     22205     22208     22216     22219     22206     22205     22208     22209
     22206     22205     22208     22210     22206     22205     22208     22216
     22207     22205     22208     22209     22207     22205     22208     22210
     22207     22205     22208     22216     22208     22210     22211     22212
     22208     22210     22211     22213     22208     22216     22219     22220
     22209     22208     22210     22211     22209     22208     22216     22217
     22209     22208     22216     22218     22209     22208     22216     22219
     22210     22208     22216     22217     22210     22208     22216     22218
     22210     22208     22216     22219     22210     22211     22213     22214
     22210     22211     22213     22215     22210     22211     22213     22225
     22211     22210     22208     22216     22211     22213     22225     22226
     22211     22213     22225     22227     22211     22213     22225     22228
     22212     22211     22213     22214     22212     22211     22213     22215
     22212     22211     22213     22225     22213     22225     22228     22229
     22213     22225     22228     22230     22213     22225     22228     22231
     22214     22213     22225     22226     22214     22213     22225     22227
     22214     22213     22225     22228     22215     22213     22225     22226
     22215     22213     22225     22227     22215     22213     22225     22228
     22216     22219     22220     22221     22216     22219     22220     22222
     22217     22216     22219     22220     22218     22216     22219     22220
     22219     22220     22222     22223     22219     22220     22222     22224
     22219     22220     22222     22272     22220     22222     22272     22273
     22220     22222     22272     22274     22220     22222     22272     22275
     22221     22220     22222     22223     22221     22220     22222     22224
     22221     22220     22222     22272     22222     22272     22275     22276
     22222     22272     22275     22277     22222     22272     22275     22278
     22223     22222     22272     22273     22223     22222     22272     22274
     22223     22222     22272     22275     22224     22222     22272     22273
     22224     22222     22272     22274     22224     22222     22272     22275
     22225     22228     22231     22232     22225     22228     22231     22233
     22226     22225     22228     22229     22226     22225     22228     22230
     22226     22225     22228     22231     22227     22225     22228     22229
     22227     22225     22228     22230     22227     22225     22228     22231
     22228     22231     22233     22234     22228     22231     22233     22235
     22229     22228     22231     22232     22229     22228     22231     22233
     22230     22228     22231     22232     22230     22228     22231     22233
     22231     22233     22235     22236     22231     22233     22235     22237
     22231     22233     22235     22238     22232     22231     22233     22234
     22232     22231     22233     22235     22233     22235     22238     22239
     22233     22235     22238     22240     22234     22233     22235     22236
     22234     22233     22235     22237     22234     22233     22235     22238
     22235     22238     22240     22241     22235     22238     22240     22242
     22236     22235     22238     22239     22236     22235     22238     22240
     22237     22235     22238     22239     22237     22235     22238     22240
     22238     22240     22242     22243     22238     22240     22242     22244
     22238     22240     22242     22245     22239     22238     22240     22241
     22239     22238     22240     22242     22240     22242     22245     22246
     22240     22242     22245     22247     22241     22240     22242     22243
     22241     22240     22242     22244     22241     22240     22242     22245
     22242     22245     22247     22248     22242     22245     22247     22249
     22243     22242     22245     22246     22243     22242     22245     22247
     22244     22242     22245     22246     22244     22242     22245     22247
     22245     22247     22249     22250     22245     22247     22249     22251
     22245     22247     22249     22252     22246     22245     22247     22248
     22246     22245     22247     22249     22247     22249     22252     22253
     22247     22249     22252     22254     22248     22247     22249     22250
     22248     22247     22249     22251     22248     22247     22249     22252
     22249     22252     22254     22255     22249     22252     22254     22256
     22250     22249     22252     22253     22250     22249     22252     22254
     22251     22249     22252     22253     22251     22249     22252     22254
     22252     22254     22256     22257     22252     22254     22256     22258
     22252     22254     22256     22259     22253     22252     22254     22255
     22253     22252     22254     22256     22254     22256     22259     22260
     22254     22256     22259     22261     22254     22256     22259     22262
     22255     22254     22256     22257     22255     22254     22256     22258
     22255     22254     22256     22259     22256     22259     22262     22263
     22256     22259     22262     22264     22256     22259     22262     22265
     22257     22256     22259     22260     22257     22256     22259     22261
     22257     22256     22259     22262     22258     22256     22259     22260
     22258     22256     22259     22261     22258     22256     22259     22262
     22259     22262     22265     22266     22259     22262     22265     22267
     22259     22262     22265     22268     22260     22259     22262     22263
     22260     22259     22262     22264     22260     22259     22262     22265
     22261     22259     22262     22263     22261     22259     22262     22264
     22261     22259     22262     22265     22262     22265     22268     22269
     22262     22265     22268     22270     22262     22265     22268     22271
     22263     22262     22265     22266     22263     22262     22265     22267
     22263     22262     22265     22268     22264     22262     22265     22266
     22264     22262     22265     22267     22264     22262     22265     22268
     22266     22265     22268     22269     22266     22265     22268     22270
     22266     22265     22268     22271     22267     22265     22268     22269
     22267     22265     22268     22270     22267     22265     22268     22271
     22272     22275     22278     22279     22272     22275     22278     22280
     22272     22275     22278     22281     22273     22272     22275     22276
     22273     22272     22275     22277     22273     22272     22275     22278
     22274     22272     22275     22276     22274     22272     22275     22277
     22274     22272     22275     22278     22275     22278     22281     22282
     22275     22278     22281     22283     22275     22278     22281     22284
     22276     22275     22278     22279     22276     22275     22278     22280
     22276     22275     22278     22281     22277     22275     22278     22279
     22277     22275     22278     22280     22277     22275     22278     22281
     22278     22281     22284     22285     22278     22281     22284     22286
     22278     22281     22284     22287     22279     22278     22281     22282
     22279     22278     22281     22283     22279     22278     22281     22284
     22280     22278     22281     22282     22280     22278     22281     22283
     22280     22278     22281     22284     22281     22284     22287     22288
     22281     22284     22287     22289     22281     22284     22287     22290
     22282     22281     22284     22285     22282     22281     22284     22286
     22282     22281     22284     22287     22283     22281     22284     22285
     22283     22281     22284     22286     22283     22281     22284     22287
     22284     22287     22290     22291     22284     22287     22290     22292
     22284     22287     22290     22293     22285     22284     22287     22288
     22285     22284     22287     22289     22285     22284     22287     22290
     22286     22284     22287     22288     22286     22284     22287     22289
     22286     22284     22287     22290     22287     22290     22293     22294
     22287     22290     22293     22295     22287     22290     22293     22296
     22288     22287     22290     22291     22288     22287     22290     22292
     22288     22287     22290     22293     22289     22287     22290     22291
     22289     22287     22290     22292     22289     22287     22290     22293
     22290     22293     22296     22297     22290     22293     22296     22298
     22290     22293     22296     22299     22291     22290     22293     22294
     22291     22290     22293     22295     22291     22290     22293     22296
     22292     22290     22293     22294     22292     22290     22293     22295
     22292     22290     22293     22296     22293     22296     22299     22300
     22293     22296     22299     22301     22293     22296     22299     22302
     22294     22293     22296     22297     22294     22293     22296     22298
     22294     22293     22296     22299     22295     22293     22296     22297
     22295     22293     22296     22298     22295     22293     22296     22299
     22296     22299     22302     22303     22296     22299     22302     22304
     22296     22299     22302     22305     22297     22296     22299     22300
     22297     22296     22299     22301     22297     22296     22299     22302
     22298     22296     22299     22300     22298     22296     22299     22301
     22298     22296     22299     22302     22299     22302     22305     22306
     22299     22302     22305     22307     22299     22302     22305     22308
     22300     22299     22302     22303     22300     22299     22302     22304
     22300     22299     22302     22305     22301     22299     22302     22303
     22301     22299     22302     22304     22301     22299     22302     22305
     22302     22305     22308     22309     22302     22305     22308     22310
     22302     22305     22308     22311     22303     22302     22305     22306
     22303     22302     22305     22307     22303     22302     22305     22308
     22304     22302     22305     22306     22304     22302     22305     22307
     22304     22302     22305     22308     22305     22308     22311     22312
     22305     22308     22311     22313     22305     22308     22311     22314
     22306     22305     22308     22309     22306     22305     22308     22310
     22306     22305     22308     22311     22307     22305     22308     22309
     22307     22305     22308     22310     22307     22305     22308     22311
     22308     22311     22314     22315     22308     22311     22314     22316
     22308     22311     22314     22317     22309     22308     22311     22312
     22309     22308     22311     22313     22309     22308     22311     22314
     22310     22308     22311     22312     22310     22308     22311     22313
     22310     22308     22311     22314     22311     22314     22317     22318
     22311     22314     22317     22319     22311     22314     22317     22320
     22312     22311     22314     22315     22312     22311     22314     22316
     22312     22311     22314     22317     22313     22311     22314     22315
     22313     22311     22314     22316     22313     22311     22314     22317
     22315     22314     22317     22318     22315     22314     22317     22319
     22315     22314     22317     22320     22316     22314     22317     22318
     22316     22314     22317     22319     22316     22314     22317     22320

       272 !NIMPHI: impropers
        24        23        26        25        33        32        35        34
       164       163       166       165       173       172       175       174
       304       303       306       305       313       312       315       314
       561       563       509       562       509       561       511       510
       634       633       636       635       643       642       645       644
       848       847       850       849       857       856       859       858
      1127      1126      1129      1128      1136      1135      1138      1137
      1316      1318      1264      1317      1264      1316      1266      1265
      1398      1397      1400      1399      1407      1406      1409      1408
      1747      1746      1749      1748      1756      1755      1758      1757
      1936      1938      1884      1937      1884      1936      1886      1885
      2021      2020      2023      2022      2030      2029      2032      2031
      2152      2151      2154      2153      2161      2160      2163      2162
      2357      2356      2359      2358      2366      2365      2368      2367
      2497      2496      2499      2498      2506      2505      2508      2507
      2684      2686      2632      2685      2632      2684      2634      2633
      2831      2830      2833      2832      2840      2839      2842      2841
      2962      2961      2964      2963      2971      2970      2973      2972
      3102      3101      3104      3103      3111      3110      3113      3112
      3289      3291      3237      3290      3237      3289      3239      3238
      3420      3422      3368      3421      3368      3420      3370      3369
      3495      3494      3497      3496      3504      3503      3506      3505
      3635      3634      3637      3636      3644      3643      3646      3645
      3764      3763      3766      3765      3773      3772      3775      3774
      3907      3906      3909      3908      3916      3915      3918      3917
      4170      4172      4118      4171      4118      4170      4120      4119
      4317      4316      4319      4318      4326      4325      4328      4327
      4596      4595      4598      4597      4605      4604      4607      4606
      4736      4735      4738      4737      4745      4744      4747      4746
      4865      4864      4867      4866      4874      4873      4876      4875
      5005      5004      5007      5006      5014      5013      5016      5015
      5188      5190      5136      5189      5136      5188      5138      5137
      5319      5321      5267      5320      5267      5319      5269      5268
      5688      5687      5690      5689      5697      5696      5699      5698
      5895      5894      5897      5896      5904      5903      5906      5905
      6174      6173      6176      6175      6183      6182      6185      6184
      6305      6304      6307      6306      6314      6313      6316      6315
      6494      6496      6442      6495      6442      6494      6444      6443
      6576      6575      6578      6577      6585      6584      6587      6586
      6714      6713      6716      6715      6723      6722      6725      6724
      6845      6844      6847      6846      6854      6853      6856      6855
      6976      6975      6978      6977      6985      6984      6987      6986
      7165      7167      7113      7166      7113      7165      7115      7114
      7388      7387      7390      7389      7397      7396      7399      7398
      7651      7653      7599      7652      7599      7651      7601      7600
      7724      7723      7726      7725      7733      7732      7735      7734
      7938      7937      7940      7939      7947      7946      7949      7948
      8127      8129      8075      8128      8075      8127      8077      8076
      8258      8260      8206      8259      8206      8258      8208      8207
      8389      8391      8337      8390      8337      8389      8339      8338
      8471      8470      8473      8472      8480      8479      8482      8481
      8604      8603      8606      8605      8613      8612      8615      8614
      8793      8795      8741      8794      8741      8793      8743      8742
      8866      8865      8868      8867      8875      8874      8877      8876
      9071      9070      9073      9072      9080      9079      9082      9081
      9211      9210      9213      9212      9220      9219      9222      9221
      9344      9343      9346      9345      9353      9352      9355      9354
      9607      9609      9555      9608      9555      9607      9557      9556
      9682      9681      9684      9683      9691      9690      9693      9692
      9822      9821      9824      9823      9831      9830      9833      9832
     10036     10035     10038     10037     10045     10044     10047     10046
     10174     10173     10176     10175     10183     10182     10185     10184
     10312     10311     10314     10313     10321     10320     10323     10322
     10511     10510     10513     10512     10520     10519     10522     10521
     10642     10641     10644     10643     10651     10650     10653     10652
     10782     10781     10784     10783     10791     10790     10793     10792
     10920     10919     10922     10921     10929     10928     10931     10930
     11109     11111     11057     11110     11057     11109     11059     11058
     11182     11181     11184     11183     11191     11190     11193     11192
     11313     11312     11315     11314     11322     11321     11324     11323
     11444     11443     11446     11445     11453     11452     11455     11454
     11577     11576     11579     11578     11586     11585     11588     11587
     11766     11768     11714     11767     11714     11766     11716     11715
     11848     11847     11850     11849     11857     11856     11859     11858
     11982     11981     11984     11983     11991     11990     11993     11992
     12270     12269     12272     12271     12279     12278     12281     12280
     12473     12472     12475     12474     12482     12481     12484     12483
     12604     12603     12606     12605     12613     12612     12615     12614
     12818     12817     12820     12819     12827     12826     12829     12828
     13079     13081     13027     13080     13027     13079     13029     13028
     13210     13212     13158     13211     13158     13210     13160     13159
     13341     13343     13289     13342     13289     13341     13291     13290
     13472     13474     13420     13473     13420     13472     13422     13421
     13603     13605     13551     13604     13551     13603     13553     13552
     13685     13684     13687     13686     13694     13693     13696     13695
     13890     13889     13892     13891     13899     13898     13901     13900
     14030     14029     14032     14031     14039     14038     14041     14040
     14171     14170     14173     14172     14180     14179     14182     14181
     14302     14301     14304     14303     14311     14310     14313     14312
     14442     14441     14444     14443     14451     14450     14453     14452
     14629     14631     14577     14630     14577     14629     14579     14578
     14760     14762     14708     14761     14708     14760     14710     14709
     14891     14893     14839     14892     14839     14891     14841     14840
     14973     14972     14975     14974     14982     14981     14984     14983
     15100     15099     15102     15101     15109     15108     15111     15110
     15305     15304     15307     15306     15314     15313     15316     15315
     15445     15444     15447     15446     15454     15453     15456     15455
     15792     15791     15794     15793     15801     15800     15803     15802
     15981     15983     15929     15982     15929     15981     15931     15930
     16204     16203     16206     16205     16213     16212     16215     16214
     16393     16395     16341     16394     16341     16393     16343     16342
     16475     16474     16477     16476     16484     16483     16486     16485
     16678     16677     16680     16679     16687     16686     16689     16688
     16867     16869     16815     16868     16815     16867     16817     16816
     16940     16939     16942     16941     16949     16948     16951     16950
     17071     17070     17073     17072     17080     17079     17082     17081
     17202     17201     17204     17203     17211     17210     17213     17212
     17345     17344     17347     17346     17354     17353     17356     17355
     17534     17536     17482     17535     17482     17534     17484     17483
     18109     18111     18057     18110     18057     18109     18059     18058
     18191     18190     18193     18192     18200     18199     18202     18201
     18322     18321     18324     18323     18331     18330     18333     18332
     18527     18526     18529     18528     18536     18535     18538     18537
     18790     18792     18738     18791     18738     18790     18740     18739
     18872     18871     18874     18873     18881     18880     18883     18882
     19010     19009     19012     19011     19019     19018     19021     19020
     19143     19142     19145     19144     19152     19151     19154     19153
     19348     19347     19350     19349     19357     19356     19359     19358
     19481     19480     19483     19482     19490     19489     19492     19491
     19670     19672     19618     19671     19618     19670     19620     19619
     19900     19899     19902     19901     19909     19908     19911     19910
     20031     20030     20033     20032     20040     20039     20042     20041
     20220     20222     20168     20221     20168     20220     20170     20169
     20293     20292     20295     20294     20302     20301     20304     20303
     20482     20484     20430     20483     20430     20482     20432     20431
     20631     20630     20633     20632     20640     20639     20642     20641
     20762     20761     20764     20763     20771     20770     20773     20772
     20902     20901     20904     20903     20911     20910     20913     20912
     21109     21108     21111     21110     21118     21117     21120     21119
     21249     21248     21251     21250     21258     21257     21260     21259
     21389     21388     21391     21390     21398     21397     21400     21399
     21675     21674     21677     21676     21684     21683     21686     21685
     21800     21799     21802     21801     21809     21808     21811     21810
     21940     21939     21942     21941     21949     21948     21951     21950
     22080     22079     22082     22081     22089     22088     22091     22090
     22211     22210     22213     22212     22220     22219     22222     22221

         0 !NDON: donors


         0 !NACC: acceptors


         0 !NNB

         0         0         0         0         0         0         0         0
         0         0         0         0         0         0         0         0
         0         0         0         0         0         0         0         0
         0         0         0         0         0         0         0         0
         0         0         0         0         0         0         0         0
         0         0         0         0         0         0         0         0
         0         0         0         0         0         0         0         0
         0         0         0         0         0         0         0         0
         0         0         0         0         0         0         0         0
         0         0         0         0         0         0         0         0
         0         0         0         0         0         0         0         0
         0         0         0         0         0         0         0         0
         0         0         0         0         0         0         0         0
         0         0         0         0         0         0         0         0
         0         0         0         0         0         0         0         0
         0         0         0         0         0         0         0         0
         0         0         0         0         0         0         0         0
         0         0         0         0         0         0         0         0
         0         0         0         0         0         0         0         0
         0         0         0         0         0         0         0         0
         0         0         0         0         0         0         0         0
         0         0         0         0         0         0         0         0
         0         0         0         0         0         0         0         0
         0         0         0         0         0         0         0         0
         0         0         0         0         0         0         0         0
         0         0         0         0         0         0         0         0
         0         0         0         0         0         0         0         0
         0         0         0         0         0         0         0         0
         0         0         0         0         0         0         0         0
         0         0         0         0         0         0         0         0
         0         0         0         0         0         0         0         0
         0         0         0         0         0         0         0         0
         0         0         0         0         0         0         0         0
         0         0         0         0         0         0         0         0
         0         0         0         0         0         0         0         0
         0         0         0         0         0         0         0         0
         0         0         0         0         0         0         0         0
         0         0         0         0         0         0         0         0
         0         0         0         0         0         0         0         0
         0         0         0         0         0         0         0         0
         0         0         0         0         0         0         0         0
         0         0         0         0         0         0         0         0
         0         0         0         0         0         0         0         0
         0         0         0         0         0         0         0         0
         0         0         0         0         0         0         0         0
         0         0         0         0         0         0         0         0
         0         0         0         0         0         0         0         0
         0         0         0         0         0         0         0         0
         0         0         0         0         0         0         0         0
         0         0         0         0         0         0         0         0
         0         0         0         0         0         0         0         0
         0         0         0         0         0         0         0         0
         0         0         0         0         0         0         0         0
         0         0         0         0         0         0         0         0
         0         0         0         0         0         0         0         0
         0         0         0         0         0         0         0         0
         0         0         0         0         0         0         0         0
         0         0         0         0         0         0         0         0
         0         0         0         0         0         0         0         0
         0         0         0         0         0         0         0         0
         0         0         0         0         0         0         0         0
         0         0         0         0         0         0         0         0
         0         0         0         0         0         0         0         0
         0         0         0         0         0         0         0         0
         0         0         0         0         0         0         0         0
         0         0         0         0         0         0         0         0
         0         0         0         0         0         0         0         0
         0         0         0         0         0         0         0         0
         0         0         0         0         0         0         0         0
         0         0         0         0         0         0         0         0
         0         0         0         0         0         0         0         0
         0         0         0         0         0         0         0         0
         0         0         0         0         0         0         0         0
         0         0         0         0         0         0         0         0
         0         0         0         0         0         0         0         0
         0         0         0         0         0         0         0         0
         0         0         0         0         0         0         0         0
         0         0         0         0         0         0         0         0
         0         0         0         0         0         0         0         0
         0         0         0         0         0         0         0         0
         0         0         0         0         0         0         0         0
         0         0         0         0         0         0         0         0
         0         0         0         0         0         0         0         0
         0         0         0         0         0         0         0         0
         0         0         0         0         0         0         0         0
         0         0         0         0         0         0         0         0
         0         0         0         0         0         0         0         0
         0         0         0         0         0         0         0         0
         0         0         0         0         0         0         0         0
         0         0         0         0         0         0         0         0
         0         0         0         0         0         0         0         0
         0         0         0         0         0         0         0         0
         0         0         0         0         0         0         0         0
         0         0         0         0         0         0         0         0
         0         0         0         0         0         0         0         0
         0         0         0         0         0         0         0         0
         0         0         0         0         0         0         0         0
         0         0         0         0         0         0         0         0
         0         0         0         0         0         0         0         0
         0         0         0         0         0         0         0         0
         0         0         0         0         0         0         0         0
         0         0         0         0         0         0         0         0
         0         0         0         0         0         0         0         0
         0         0         0         0         0         0         0         0
         0         0         0         0         0         0         0         0
         0         0         0         0         0         0         0         0
         0         0         0         0         0         0         0         0
         0         0         0         0         0         0         0         0
         0         0         0         0         0         0         0         0
         0         0         0         0         0         0         0         0
         0         0         0         0         0         0         0         0
         0         0         0         0         0         0         0         0
         0         0         0         0         0         0         0         0
         0         0         0         0         0         0         0         0
         0         0         0         0         0         0         0         0
         0         0         0         0         0         0         0         0
         0         0         0         0         0         0         0         0
         0         0         0         0         0         0         0         0
         0         0         0         0         0         0         0         0
         0         0         0         0         0         0         0         0
         0         0         0         0         0         0         0         0
         0         0         0         0         0         0         0         0
         0         0         0         0         0         0         0         0
         0         0         0         0         0         0         0         0
         0         0         0         0         0         0         0         0
         0         0         0         0         0         0         0         0
         0         0         0         0         0         0         0         0
         0         0         0         0         0         0         0         0
         0         0         0         0         0         0         0         0
         0         0         0         0         0         0         0         0
         0         0         0         0         0         0         0         0
         0         0         0         0         0         0         0         0
         0         0         0         0         0         0         0         0
         0         0         0         0         0         0         0         0
         0         0         0         0         0         0         0         0
         0         0         0         0         0         0         0         0
         0         0         0         0         0         0         0         0
         0         0         0         0         0         0         0         0
         0         0         0         0         0         0         0         0
         0         0         0         0         0         0         0         0
         0         0         0         0         0         0         0         0
         0         0         0         0         0         0         0         0
         0         0         0         0         0         0         0         0
         0         0         0         0         0         0         0         0
         0         0         0         0         0         0         0         0
         0         0         0         0         0         0         0         0
         0         0         0         0         0         0         0         0
         0         0         0         0         0         0         0         0
         0         0         0         0         0         0         0         0
         0         0         0         0         0         0         0         0
         0         0         0         0         0         0         0         0
         0         0         0         0         0         0         0         0
         0         0         0         0         0         0         0         0
         0         0         0         0         0         0         0         0
         0         0         0         0         0         0         0         0
         0         0         0         0         0         0         0         0
         0         0         0         0         0         0         0         0
         0         0         0         0         0         0         0         0
         0         0         0         0         0         0         0         0
         0         0         0         0         0         0         0         0
         0         0         0         0         0         0         0         0
         0         0         0         0         0         0         0         0
         0         0         0         0         0         0         0         0
         0         0         0         0         0         0         0         0
         0         0         0         0         0         0         0         0
         0         0         0         0         0         0         0         0
         0         0         0         0         0         0         0         0
         0         0         0         0         0         0         0         0
         0         0         0         0         0         0         0         0
         0         0         0         0         0         0         0         0
         0         0         0         0         0         0         0         0
         0         0         0         0         0         0         0         0
         0         0         0         0         0         0         0         0
         0         0         0         0         0         0         0         0
         0         0         0         0         0         0         0         0
         0         0         0         0         0         0         0         0
         0         0         0         0         0         0         0         0
         0         0         0         0         0         0         0         0
         0         0         0         0         0         0         0         0
         0         0         0         0         0         0         0         0
         0         0         0         0         0         0         0         0
         0         0         0         0         0         0         0         0
         0         0         0         0         0         0         0         0
         0         0         0         0         0         0         0         0
         0         0         0         0         0         0         0         0
         0         0         0         0         0         0         0         0
         0         0         0         0         0         0         0         0
         0         0         0         0         0         0         0         0
         0         0         0         0         0         0         0         0
         0         0         0         0         0         0         0         0
         0         0         0         0         0         0         0         0
         0         0         0         0         0         0         0         0
         0         0         0         0         0         0         0         0
         0         0         0         0         0         0         0         0
         0         0         0         0         0         0         0         0
         0         0         0         0         0         0         0         0
         0         0         0         0         0         0         0         0
         0         0         0         0         0         0         0         0
         0         0         0         0         0         0         0         0
         0         0         0         0         0         0         0         0
         0         0         0         0         0         0         0         0
         0         0         0         0         0         0         0         0
         0         0         0         0         0         0         0         0
         0         0         0         0         0         0         0         0
         0         0         0         0         0         0         0         0
         0         0         0         0         0         0         0         0
         0         0         0         0         0         0         0         0
         0         0         0         0         0         0         0         0
         0         0         0         0         0         0         0         0
         0         0         0         0         0         0         0         0
         0         0         0         0         0         0         0         0
         0         0         0         0         0         0         0         0
         0         0         0         0         0         0         0         0
         0         0         0         0         0         0         0         0
         0         0         0         0         0         0         0         0
         0         0         0         0         0         0         0         0
         0         0         0         0         0         0         0         0
         0         0         0         0         0         0         0         0
         0         0         0         0         0         0         0         0
         0         0         0         0         0         0         0         0
         0         0         0         0         0         0         0         0
         0         0         0         0         0         0         0         0
         0         0         0         0         0         0         0         0
         0         0         0         0         0         0         0         0
         0         0         0         0         0         0         0         0
         0         0         0         0         0         0         0         0
         0         0         0         0         0         0         0         0
         0         0         0         0         0         0         0         0
         0         0         0         0         0         0         0         0
         0         0         0         0         0         0         0         0
         0         0         0         0         0         0         0         0
         0         0         0         0         0         0         0         0
         0         0         0         0         0         0         0         0
         0         0         0         0         0         0         0         0
         0         0         0         0         0         0         0         0
         0         0         0         0         0         0         0         0
         0         0         0         0         0         0         0         0
         0         0         0         0         0         0         0         0
         0         0         0         0         0         0         0         0
         0         0         0         0         0         0         0         0
         0         0         0         0         0         0         0         0
         0         0         0         0         0         0         0         0
         0         0         0         0         0         0         0         0
         0         0         0         0         0         0         0         0
         0         0         0         0         0         0         0         0
         0         0         0         0         0         0         0         0
         0         0         0         0         0         0         0         0
         0         0         0         0         0         0         0         0
         0         0         0         0         0         0         0         0
         0         0         0         0         0         0         0         0
         0         0         0         0         0         0         0         0
         0         0         0         0         0         0         0         0
         0         0         0         0         0         0         0         0
         0         0         0         0         0         0         0         0
         0         0         0         0         0         0         0         0
         0         0         0         0         0         0         0         0
         0         0         0         0         0         0         0         0
         0         0         0         0         0         0         0         0
         0         0         0         0         0         0         0         0
         0         0         0         0         0         0         0         0
         0         0         0         0         0         0         0         0
         0         0         0         0         0         0         0         0
         0         0         0         0         0         0         0         0
         0         0         0         0         0         0         0         0
         0         0         0         0         0         0         0         0
         0         0         0         0         0         0         0         0
         0         0         0         0         0         0         0         0
         0         0         0         0         0         0         0         0
         0         0         0         0         0         0         0         0
         0         0         0         0         0         0         0         0
         0         0         0         0         0         0         0         0
         0         0         0         0         0         0         0         0
         0         0         0         0         0         0         0         0
         0         0         0         0         0         0         0         0
         0         0         0         0         0         0         0         0
         0         0         0         0         0         0         0         0
         0         0         0         0         0         0         0         0
         0         0         0         0         0         0         0         0
         0         0         0         0         0         0         0         0
         0         0         0         0         0         0         0         0
         0         0         0         0         0         0         0         0
         0         0         0         0         0         0         0         0
         0         0         0         0         0         0         0         0
         0         0         0         0         0         0         0         0
         0         0         0         0         0         0         0         0
         0         0         0         0         0         0         0         0
         0         0         0         0         0         0         0         0
         0         0         0         0         0         0         0         0
         0         0         0         0         0         0         0         0
         0         0         0         0         0         0         0         0
         0         0         0         0         0         0         0         0
         0         0         0         0         0         0         0         0
         0         0         0         0         0         0         0         0
         0         0         0         0         0         0         0         0
         0         0         0         0         0         0         0         0
         0         0         0         0         0         0         0         0
         0         0         0         0         0         0         0         0
         0         0         0         0         0         0         0         0
         0         0         0         0         0         0         0         0
         0         0         0         0         0         0         0         0
         0         0         0         0         0         0         0         0
         0         0         0         0         0         0         0         0
         0         0         0         0         0         0         0         0
         0         0         0         0         0         0         0         0
         0         0         0         0         0         0         0         0
         0         0         0         0         0         0         0         0
         0         0         0         0         0         0         0         0
         0         0         0         0         0         0         0         0
         0         0         0         0         0         0         0         0
         0         0         0         0         0         0         0         0
         0         0         0         0         0         0         0         0
         0         0         0         0         0         0         0         0
         0         0         0         0         0         0         0         0
         0         0         0         0         0         0         0         0
         0         0         0         0         0         0         0         0
         0         0         0         0         0         0         0         0
         0         0         0         0         0         0         0         0
         0         0         0         0         0         0         0         0
         0         0         0         0         0         0         0         0
         0         0         0         0         0         0         0         0
         0         0         0         0         0         0         0         0
         0         0         0         0         0         0         0         0
         0         0         0         0         0         0         0         0
         0         0         0         0         0         0         0         0
         0         0         0         0         0         0         0         0
         0         0         0         0         0         0         0         0
         0         0         0         0         0         0         0         0
         0         0         0         0         0         0         0         0
         0         0         0         0         0         0         0         0
         0         0         0         0         0         0         0         0
         0         0         0         0         0         0         0         0
         0         0         0         0         0         0         0         0
         0         0         0         0         0         0         0         0
         0         0         0         0         0         0         0         0
         0         0         0         0         0         0         0         0
         0         0         0         0         0         0         0         0
         0         0         0         0         0         0         0         0
         0         0         0         0         0         0         0         0
         0         0         0         0         0         0         0         0
         0         0         0         0         0         0         0         0
         0         0         0         0         0         0         0         0
         0         0         0         0         0         0         0         0
         0         0         0         0         0         0         0         0
         0         0         0         0         0         0         0         0
         0         0         0         0         0         0         0         0
         0         0         0         0         0         0         0         0
         0         0         0         0         0         0         0         0
         0         0         0         0         0         0         0         0
         0         0         0         0         0         0         0         0
         0         0         0         0         0         0         0         0
         0         0         0         0         0         0         0         0
         0         0         0         0         0         0         0         0
         0         0         0         0         0         0         0         0
         0         0         0         0         0         0         0         0
         0         0         0         0         0         0         0         0
         0         0         0         0         0         0         0         0
         0         0         0         0         0         0         0         0
         0         0         0         0         0         0         0         0
         0         0         0         0         0         0         0         0
         0         0         0         0         0         0         0         0
         0         0         0         0         0         0         0         0
         0         0         0         0         0         0         0         0
         0         0         0         0         0         0         0         0
         0         0         0         0         0         0         0         0
         0         0         0         0         0         0         0         0
         0         0         0         0         0         0         0         0
         0         0         0         0         0         0         0         0
         0         0         0         0         0         0         0         0
         0         0         0         0         0         0         0         0
         0         0         0         0         0         0         0         0
         0         0         0         0         0         0         0         0
         0         0         0         0         0         0         0         0
         0         0         0         0         0         0         0         0
         0         0         0         0         0         0         0         0
         0         0         0         0         0         0         0         0
         0         0         0         0         0         0         0         0
         0         0         0         0         0         0         0         0
         0         0         0         0         0         0         0         0
         0         0         0         0         0         0         0         0
         0         0         0         0         0         0         0         0
         0         0         0         0         0         0         0         0
         0         0         0         0         0         0         0         0
         0         0         0         0         0         0         0         0
         0         0         0         0         0         0         0         0
         0         0         0         0         0         0         0         0
         0         0         0         0         0         0         0         0
         0         0         0         0         0         0         0         0
         0         0         0         0         0         0         0         0
         0         0         0         0         0         0         0         0
         0         0         0         0         0         0         0         0
         0         0         0         0         0         0         0         0
         0         0         0         0         0         0         0         0
         0         0         0         0         0         0         0         0
         0         0         0         0         0         0         0         0
         0         0         0         0         0         0         0         0
         0         0         0         0         0         0         0         0
         0         0         0         0         0         0         0         0
         0         0         0         0         0         0         0         0
         0         0         0         0         0         0         0         0
         0         0         0         0         0         0         0         0
         0         0         0         0         0         0         0         0
         0         0         0         0         0         0         0         0
         0         0         0         0         0         0         0         0
         0         0         0         0         0         0         0         0
         0         0         0         0         0         0         0         0
         0         0         0         0         0         0         0         0
         0         0         0         0         0         0         0         0
         0         0         0         0         0         0         0         0
         0         0         0         0         0         0         0         0
         0         0         0         0         0         0         0         0
         0         0         0         0         0         0         0         0
         0         0         0         0         0         0         0         0
         0         0         0         0         0         0         0         0
         0         0         0         0         0         0         0         0
         0         0         0         0         0         0         0         0
         0         0         0         0         0         0         0         0
         0         0         0         0         0         0         0         0
         0         0         0         0         0         0         0         0
         0         0         0         0         0         0         0         0
         0         0         0         0         0         0         0         0
         0         0         0         0         0         0         0         0
         0         0         0         0         0         0         0         0
         0         0         0         0         0         0         0         0
         0         0         0         0         0         0         0         0
         0         0         0         0         0         0         0         0
         0         0         0         0         0         0         0         0
         0         0         0         0         0         0         0         0
         0         0         0         0         0         0         0         0
         0         0         0         0         0         0         0         0
         0         0         0         0         0         0         0         0
         0         0         0         0         0         0         0         0
         0         0         0         0         0         0         0         0
         0         0         0         0         0         0         0         0
         0         0         0         0         0         0         0         0
         0         0         0         0         0         0         0         0
         0         0         0         0         0         0         0         0
         0         0         0         0         0         0         0         0
         0         0         0         0         0         0         0         0
         0         0         0         0         0         0         0         0
         0         0         0         0         0         0         0         0
         0         0         0         0         0         0         0         0
         0         0         0         0         0         0         0         0
         0         0         0         0         0         0         0         0
         0         0         0         0         0         0         0         0
         0         0         0         0         0         0         0         0
         0         0         0         0         0         0         0         0
         0         0         0         0         0         0         0         0
         0         0         0         0         0         0         0         0
         0         0         0         0         0         0         0         0
         0         0         0         0         0         0         0         0
         0         0         0         0         0         0         0         0
         0         0         0         0         0         0         0         0
         0         0         0         0         0         0         0         0
         0         0         0         0         0         0         0         0
         0         0         0         0         0         0         0         0
         0         0         0         0         0         0         0         0
         0         0         0         0         0         0         0         0
         0         0         0         0         0         0         0         0
         0         0         0         0         0         0         0         0
         0         0         0         0         0         0         0         0
         0         0         0         0         0         0         0         0
         0         0         0         0         0         0         0         0
         0         0         0         0         0         0         0         0
         0         0         0         0         0         0         0         0
         0         0         0         0         0         0         0         0
         0         0         0         0         0         0         0         0
         0         0         0         0         0         0         0         0
         0         0         0         0         0         0         0         0
         0         0         0         0         0         0         0         0
         0         0         0         0         0         0         0         0
         0         0         0         0         0         0         0         0
         0         0         0         0         0         0         0         0
         0         0         0         0         0         0         0         0
         0         0         0         0         0         0         0         0
         0         0         0         0         0         0         0         0
         0         0         0         0         0         0         0         0
         0         0         0         0         0         0         0         0
         0         0         0         0         0         0         0         0
         0         0         0         0         0         0         0         0
         0         0         0         0         0         0         0         0
         0         0         0         0         0         0         0         0
         0         0         0         0         0         0         0         0
         0         0         0         0         0         0         0         0
         0         0         0         0         0         0         0         0
         0         0         0         0         0         0         0         0
         0         0         0         0         0         0         0         0
         0         0         0         0         0         0         0         0
         0         0         0         0         0         0         0         0
         0         0         0         0         0         0         0         0
         0         0         0         0         0         0         0         0
         0         0         0         0         0         0         0         0
         0         0         0         0         0         0         0         0
         0         0         0         0         0         0         0         0
         0         0         0         0         0         0         0         0
         0         0         0         0         0         0         0         0
         0         0         0         0         0         0         0         0
         0         0         0         0         0         0         0         0
         0         0         0         0         0         0         0         0
         0         0         0         0         0         0         0         0
         0         0         0         0         0         0         0         0
         0         0         0         0         0         0         0         0
         0         0         0         0         0         0         0         0
         0         0         0         0         0         0         0         0
         0         0         0         0         0         0         0         0
         0         0         0         0         0         0         0         0
         0         0         0         0         0         0         0         0
         0         0         0         0         0         0         0         0
         0         0         0         0         0         0         0         0
         0         0         0         0         0         0         0         0
         0         0         0         0         0         0         0         0
         0         0         0         0         0         0         0         0
         0         0         0         0         0         0         0         0
         0         0         0         0         0         0         0         0
         0         0         0         0         0         0         0         0
         0         0         0         0         0         0         0         0
         0         0         0         0         0         0         0         0
         0         0         0         0         0         0         0         0
         0         0         0         0         0         0         0         0
         0         0         0         0         0         0         0         0
         0         0         0         0         0         0         0         0
         0         0         0         0         0         0         0         0
         0         0         0         0         0         0         0         0
         0         0         0         0         0         0         0         0
         0         0         0         0         0         0         0         0
         0         0         0         0         0         0         0         0
         0         0         0         0         0         0         0         0
         0         0         0         0         0         0         0         0
         0         0         0         0         0         0         0         0
         0         0         0         0         0         0         0         0
         0         0         0         0         0         0         0         0
         0         0         0         0         0         0         0         0
         0         0         0         0         0         0         0         0
         0         0         0         0         0         0         0         0
         0         0         0         0         0         0         0         0
         0         0         0         0         0         0         0         0
         0         0         0         0         0         0         0         0
         0         0         0         0         0         0         0         0
         0         0         0         0         0         0         0         0
         0         0         0         0         0         0         0         0
         0         0         0         0         0         0         0         0
         0         0         0         0         0         0         0         0
         0         0         0         0         0         0         0         0
         0         0         0         0         0         0         0         0
         0         0         0         0         0         0         0         0
         0         0         0         0         0         0         0         0
         0         0         0         0         0         0         0         0
         0         0         0         0         0         0         0         0
         0         0         0         0         0         0         0         0
         0         0         0         0         0         0         0         0
         0         0         0         0         0         0         0         0
         0         0         0         0         0         0         0         0
         0         0         0         0         0         0         0         0
         0         0         0         0         0         0         0         0
         0         0         0         0         0         0         0         0
         0         0         0         0         0         0         0         0
         0         0         0         0         0         0         0         0
         0         0         0         0         0         0         0         0
         0         0         0         0         0         0         0         0
         0         0         0         0         0         0         0         0
         0         0         0         0         0         0         0         0
         0         0         0         0         0         0         0         0
         0         0         0         0         0         0         0         0
         0         0         0         0         0         0         0         0
         0         0         0         0         0         0         0         0
         0         0         0         0         0         0         0         0
         0         0         0         0         0         0         0         0
         0         0         0         0         0         0         0         0
         0         0         0         0         0         0         0         0
         0         0         0         0         0         0         0         0
         0         0         0         0         0         0         0         0
         0         0         0         0         0         0         0         0
         0         0         0         0         0         0         0         0
         0         0         0         0         0         0         0         0
         0         0         0         0         0         0         0         0
         0         0         0         0         0         0         0         0
         0         0         0         0         0         0         0         0
         0         0         0         0         0         0         0         0
         0         0         0         0         0         0         0         0
         0         0         0         0         0         0         0         0
         0         0         0         0         0         0         0         0
         0         0         0         0         0         0         0         0
         0         0         0         0         0         0         0         0
         0         0         0         0         0         0         0         0
         0         0         0         0         0         0         0         0
         0         0         0         0         0         0         0         0
         0         0         0         0         0         0         0         0
         0         0         0         0         0         0         0         0
         0         0         0         0         0         0         0         0
         0         0         0         0         0         0         0         0
         0         0         0         0         0         0         0         0
         0         0         0         0         0         0         0         0
         0         0         0         0         0         0         0         0
         0         0         0         0         0         0         0         0
         0         0         0         0         0         0         0         0
         0         0         0         0         0         0         0         0
         0         0         0         0         0         0         0         0
         0         0         0         0         0         0         0         0
         0         0         0         0         0         0         0         0
         0         0         0         0         0         0         0         0
         0         0         0         0         0         0         0         0
         0         0         0         0         0         0         0         0
         0         0         0         0         0         0         0         0
         0         0         0         0         0         0         0         0
         0         0         0         0         0         0         0         0
         0         0         0         0         0         0         0         0
         0         0         0         0         0         0         0         0
         0         0         0         0         0         0         0         0
         0         0         0         0         0         0         0         0
         0         0         0         0         0         0         0         0
         0         0         0         0         0         0         0         0
         0         0         0         0         0         0         0         0
         0         0         0         0         0         0         0         0
         0         0         0         0         0         0         0         0
         0         0         0         0         0         0         0         0
         0         0         0         0         0         0         0         0
         0         0         0         0         0         0         0         0
         0         0         0         0         0         0         0         0
         0         0         0         0         0         0         0         0
         0         0         0         0         0         0         0         0
         0         0         0         0         0         0         0         0
         0         0         0         0         0         0         0         0
         0         0         0         0         0         0         0         0
         0         0         0         0         0         0         0         0
         0         0         0         0         0         0         0         0
         0         0         0         0         0         0         0         0
         0         0         0         0         0         0         0         0
         0         0         0         0         0         0         0         0
         0         0         0         0         0         0         0         0
         0         0         0         0         0         0         0         0
         0         0         0         0         0         0         0         0
         0         0         0         0         0         0         0         0
         0         0         0         0         0         0         0         0
         0         0         0         0         0         0         0         0
         0         0         0         0         0         0         0         0
         0         0         0         0         0         0         0         0
         0         0         0         0         0         0         0         0
         0         0         0         0         0         0         0         0
         0         0         0         0         0         0         0         0
         0         0         0         0         0         0         0         0
         0         0         0         0         0         0         0         0
         0         0         0         0         0         0         0         0
         0         0         0         0         0         0         0         0
         0         0         0         0         0         0         0         0
         0         0         0         0         0         0         0         0
         0         0         0         0         0         0         0         0
         0         0         0         0         0         0         0         0
         0         0         0         0         0         0         0         0
         0         0         0         0         0         0         0         0
         0         0         0         0         0         0         0         0
         0         0         0         0         0         0         0         0
         0         0         0         0         0         0         0         0
         0         0         0         0         0         0         0         0
         0         0         0         0         0         0         0         0
         0         0         0         0         0         0         0         0
         0         0         0         0         0         0         0         0
         0         0         0         0         0         0         0         0
         0         0         0         0         0         0         0         0
         0         0         0         0         0         0         0         0
         0         0         0         0         0         0         0         0
         0         0         0         0         0         0         0         0
         0         0         0         0         0         0         0         0
         0         0         0         0         0         0         0         0
         0         0         0         0         0         0         0         0
         0         0         0         0         0         0         0         0
         0         0         0         0         0         0         0         0
         0         0         0         0         0         0         0         0
         0         0         0         0         0         0         0         0
         0         0         0         0         0         0         0         0
         0         0         0         0         0         0         0         0
         0         0         0         0         0         0         0         0
         0         0         0         0         0         0         0         0
         0         0         0         0         0         0         0         0
         0         0         0         0         0         0         0         0
         0         0         0         0         0         0         0         0
         0         0         0         0         0         0         0         0
         0         0         0         0         0         0         0         0
         0         0         0         0         0         0         0         0
         0         0         0         0         0         0         0         0
         0         0         0         0         0         0         0         0
         0         0         0         0         0         0         0         0
         0         0         0         0         0         0         0         0
         0         0         0         0         0         0         0         0
         0         0         0         0         0         0         0         0
         0         0         0         0         0         0         0         0
         0         0         0         0         0         0         0         0
         0         0         0         0         0         0         0         0
         0         0         0         0         0         0         0         0
         0         0         0         0         0         0         0         0
         0         0         0         0         0         0         0         0
         0         0         0         0         0         0         0         0
         0         0         0         0         0         0         0         0
         0         0         0         0         0         0         0         0
         0         0         0         0         0         0         0         0
         0         0         0         0         0         0         0         0
         0         0         0         0         0         0         0         0
         0         0         0         0         0         0         0         0
         0         0         0         0         0         0         0         0
         0         0         0         0         0         0         0         0
         0         0         0         0         0         0         0         0
         0         0         0         0         0         0         0         0
         0         0         0         0         0         0         0         0
         0         0         0         0         0         0         0         0
         0         0         0         0         0         0         0         0
         0         0         0         0         0         0         0         0
         0         0         0         0         0         0         0         0
         0         0         0         0         0         0         0         0
         0         0         0         0         0         0         0         0
         0         0         0         0         0         0         0         0
         0         0         0         0         0         0         0         0
         0         0         0         0         0         0         0         0
         0         0         0         0         0         0         0         0
         0         0         0         0         0         0         0         0
         0         0         0         0         0         0         0         0
         0         0         0         0         0         0         0         0
         0         0         0         0         0         0         0         0
         0         0         0         0         0         0         0         0
         0         0         0         0         0         0         0         0
         0         0         0         0         0         0         0         0
         0         0         0         0         0         0         0         0
         0         0         0         0         0         0         0         0
         0         0         0         0         0         0         0         0
         0         0         0         0         0         0         0         0
         0         0         0         0         0         0         0         0
         0         0         0         0         0         0         0         0
         0         0         0         0         0         0         0         0
         0         0         0         0         0         0         0         0
         0         0         0         0         0         0         0         0
         0         0         0         0         0         0         0         0
         0         0         0         0         0         0         0         0
         0         0         0         0         0         0         0         0
         0         0         0         0         0         0         0         0
         0         0         0         0         0         0         0         0
         0         0         0         0         0         0         0         0
         0         0         0         0         0         0         0         0
         0         0         0         0         0         0         0         0
         0         0         0         0         0         0         0         0
         0         0         0         0         0         0         0         0
         0         0         0         0         0         0         0         0
         0         0         0         0         0         0         0         0
         0         0         0         0         0         0         0         0
         0         0         0         0         0         0         0         0
         0         0         0         0         0         0         0         0
         0         0         0         0         0         0         0         0
         0         0         0         0         0         0         0         0
         0         0         0         0         0         0         0         0
         0         0         0         0         0         0         0         0
         0         0         0         0         0         0         0         0
         0         0         0         0         0         0         0         0
         0         0         0         0         0         0         0         0
         0         0         0         0         0         0         0         0
         0         0         0         0         0         0         0         0
         0         0         0         0         0         0         0         0
         0         0         0         0         0         0         0         0
         0         0         0         0         0         0         0         0
         0         0         0         0         0         0         0         0
         0         0         0         0         0         0         0         0
         0         0         0         0         0         0         0         0
         0         0         0         0         0         0         0         0
         0         0         0         0         0         0         0         0
         0         0         0         0         0         0         0         0
         0         0         0         0         0         0         0         0
         0         0         0         0         0         0         0         0
         0         0         0         0         0         0         0         0
         0         0         0         0         0         0         0         0
         0         0         0         0         0         0         0         0
         0         0         0         0         0         0         0         0
         0         0         0         0         0         0         0         0
         0         0         0         0         0         0         0         0
         0         0         0         0         0         0         0         0
         0         0         0         0         0         0         0         0
         0         0         0         0         0         0         0         0
         0         0         0         0         0         0         0         0
         0         0         0         0         0         0         0         0
         0         0         0         0         0         0         0         0
         0         0         0         0         0         0         0         0
         0         0         0         0         0         0         0         0
         0         0         0         0         0         0         0         0
         0         0         0         0         0         0         0         0
         0         0         0         0         0         0         0         0
         0         0         0         0         0         0         0         0
         0         0         0         0         0         0         0         0
         0         0         0         0         0         0         0         0
         0         0         0         0         0         0         0         0
         0         0         0         0         0         0         0         0
         0         0         0         0         0         0         0         0
         0         0         0         0         0         0         0         0
         0         0         0         0         0         0         0         0
         0         0         0         0         0         0         0         0
         0         0         0         0         0         0         0         0
         0         0         0         0         0         0         0         0
         0         0         0         0         0         0         0         0
         0         0         0         0         0         0         0         0
         0         0         0         0         0         0         0         0
         0         0         0         0         0         0         0         0
         0         0         0         0         0         0         0         0
         0         0         0         0         0         0         0         0
         0         0         0         0         0         0         0         0
         0         0         0         0         0         0         0         0
         0         0         0         0         0         0         0         0
         0         0         0         0         0         0         0         0
         0         0         0         0         0         0         0         0
         0         0         0         0         0         0         0         0
         0         0         0         0         0         0         0         0
         0         0         0         0         0         0         0         0
         0         0         0         0         0         0         0         0
         0         0         0         0         0         0         0         0
         0         0         0         0         0         0         0         0
         0         0         0         0         0         0         0         0
         0         0         0         0         0         0         0         0
         0         0         0         0         0         0         0         0
         0         0         0         0         0         0         0         0
         0         0         0         0         0         0         0         0
         0         0         0         0         0         0         0         0
         0         0         0         0         0         0         0         0
         0         0         0         0         0         0         0         0
         0         0         0         0         0         0         0         0
         0         0         0         0         0         0         0         0
         0         0         0         0         0         0         0         0
         0         0         0         0         0         0         0         0
         0         0         0         0         0         0         0         0
         0         0         0         0         0         0         0         0
         0         0         0         0         0         0         0         0
         0         0         0         0         0         0         0         0
         0         0         0         0         0         0         0         0
         0         0         0         0         0         0         0         0
         0         0         0         0         0         0         0         0
         0         0         0         0         0         0         0         0
         0         0         0         0         0         0         0         0
         0         0         0         0         0         0         0         0
         0         0         0         0         0         0         0         0
         0         0         0         0         0         0         0         0
         0         0         0         0         0         0         0         0
         0         0         0         0         0         0         0         0
         0         0         0         0         0         0         0         0
         0         0         0         0         0         0         0         0
         0         0         0         0         0         0         0         0
         0         0         0         0         0         0         0         0
         0         0         0         0         0         0         0         0
         0         0         0         0         0         0         0         0
         0         0         0         0         0         0         0         0
         0         0         0         0         0         0         0         0
         0         0         0         0         0         0         0         0
         0         0         0         0         0         0         0         0
         0         0         0         0         0         0         0         0
         0         0         0         0         0         0         0         0
         0         0         0         0         0         0         0         0
         0         0         0         0         0         0         0         0
         0         0         0         0         0         0         0         0
         0         0         0         0         0         0         0         0
         0         0         0         0         0         0         0         0
         0         0         0         0         0         0         0         0
         0         0         0         0         0         0         0         0
         0         0         0         0         0         0         0         0
         0         0         0         0         0         0         0         0
         0         0         0         0         0         0         0         0
         0         0         0         0         0         0         0         0
         0         0         0         0         0         0         0         0
         0         0         0         0         0         0         0         0
         0         0         0         0         0         0         0         0
         0         0         0         0         0         0         0         0
         0         0         0         0         0         0         0         0
         0         0         0         0         0         0         0         0
         0         0         0         0         0         0         0         0
         0         0         0         0         0         0         0         0
         0         0         0         0         0         0         0         0
         0         0         0         0         0         0         0         0
         0         0         0         0         0         0         0         0
         0         0         0         0         0         0         0         0
         0         0         0         0         0         0         0         0
         0         0         0         0         0         0         0         0
         0         0         0         0         0         0         0         0
         0         0         0         0         0         0         0         0
         0         0         0         0         0         0         0         0
         0         0         0         0         0         0         0         0
         0         0         0         0         0         0         0         0
         0         0         0         0         0         0         0         0
         0         0         0         0         0         0         0         0
         0         0         0         0         0         0         0         0
         0         0         0         0         0         0         0         0
         0         0         0         0         0         0         0         0
         0         0         0         0         0         0         0         0
         0         0         0         0         0         0         0         0
         0         0         0         0         0         0         0         0
         0         0         0         0         0         0         0         0
         0         0         0         0         0         0         0         0
         0         0         0         0         0         0         0         0
         0         0         0         0         0         0         0         0
         0         0         0         0         0         0         0         0
         0         0         0         0         0         0         0         0
         0         0         0         0         0         0         0         0
         0         0         0         0         0         0         0         0
         0         0         0         0         0         0         0         0
         0         0         0         0         0         0         0         0
         0         0         0         0         0         0         0         0
         0         0         0         0         0         0         0         0
         0         0         0         0         0         0         0         0
         0         0         0         0         0         0         0         0
         0         0         0         0         0         0         0         0
         0         0         0         0         0         0         0         0
         0         0         0         0         0         0         0         0
         0         0         0         0         0         0         0         0
         0         0         0         0         0         0         0         0
         0         0         0         0         0         0         0         0
         0         0         0         0         0         0         0         0
         0         0         0         0         0         0         0         0
         0         0         0         0         0         0         0         0
         0         0         0         0         0         0         0         0
         0         0         0         0         0         0         0         0
         0         0         0         0         0         0         0         0
         0         0         0         0         0         0         0         0
         0         0         0         0         0         0         0         0
         0         0         0         0         0         0         0         0
         0         0         0         0         0         0         0         0
         0         0         0         0         0         0         0         0
         0         0         0         0         0         0         0         0
         0         0         0         0         0         0         0         0
         0         0         0         0         0         0         0         0
         0         0         0         0         0         0         0         0
         0         0         0         0         0         0         0         0
         0         0         0         0         0         0         0         0
         0         0         0         0         0         0         0         0
         0         0         0         0         0         0         0         0
         0         0         0         0         0         0         0         0
         0         0         0         0         0         0         0         0
         0         0         0         0         0         0         0         0
         0         0         0         0         0         0         0         0
         0         0         0         0         0         0         0         0
         0         0         0         0         0         0         0         0
         0         0         0         0         0         0         0         0
         0         0         0         0         0         0         0         0
         0         0         0         0         0         0         0         0
         0         0         0         0         0         0         0         0
         0         0         0         0         0         0         0         0
         0         0         0         0         0         0         0         0
         0         0         0         0         0         0         0         0
         0         0         0         0         0         0         0         0
         0         0         0         0         0         0         0         0
         0         0         0         0         0         0         0         0
         0         0         0         0         0         0         0         0
         0         0         0         0         0         0         0         0
         0         0         0         0         0         0         0         0
         0         0         0         0         0         0         0         0
         0         0         0         0         0         0         0         0
         0         0         0         0         0         0         0         0
         0         0         0         0         0         0         0         0
         0         0         0         0         0         0         0         0
         0         0         0         0         0         0         0         0
         0         0         0         0         0         0         0         0
         0         0         0         0         0         0         0         0
         0         0         0         0         0         0         0         0
         0         0         0         0         0         0         0         0
         0         0         0         0         0         0         0         0
         0         0         0         0         0         0         0         0
         0         0         0         0         0         0         0         0
         0         0         0         0         0         0         0         0
         0         0         0         0         0         0         0         0
         0         0         0         0         0         0         0         0
         0         0         0         0         0         0         0         0
         0         0         0         0         0         0         0         0
         0         0         0         0         0         0         0         0
         0         0         0         0         0         0         0         0
         0         0         0         0         0         0         0         0
         0         0         0         0         0         0         0         0
         0         0         0         0         0         0         0         0
         0         0         0         0         0         0         0         0
         0         0         0         0         0         0         0         0
         0         0         0         0         0         0         0         0
         0         0         0         0         0         0         0         0
         0         0         0         0         0         0         0         0
         0         0         0         0         0         0         0         0
         0         0         0         0         0         0         0         0
         0         0         0         0         0         0         0         0
         0         0         0         0         0         0         0         0
         0         0         0         0         0         0         0         0
         0         0         0         0         0         0         0         0
         0         0         0         0         0         0         0         0
         0         0         0         0         0         0         0         0
         0         0         0         0         0         0         0         0
         0         0         0         0         0         0         0         0
         0         0         0         0         0         0         0         0
         0         0         0         0         0         0         0         0
         0         0         0         0         0         0         0         0
         0         0         0         0         0         0         0         0
         0         0         0         0         0         0         0         0
         0         0         0         0         0         0         0         0
         0         0         0         0         0         0         0         0
         0         0         0         0         0         0         0         0
         0         0         0         0         0         0         0         0
         0         0         0         0         0         0         0         0
         0         0         0         0         0         0         0         0
         0         0         0         0         0         0         0         0
         0         0         0         0         0         0         0         0
         0         0         0         0         0         0         0         0
         0         0         0         0         0         0         0         0
         0         0         0         0         0         0         0         0
         0         0         0         0         0         0         0         0
         0         0         0         0         0         0         0         0
         0         0         0         0         0         0         0         0
         0         0         0         0         0         0         0         0
         0         0         0         0         0         0         0         0
         0         0         0         0         0         0         0         0
         0         0         0         0         0         0         0         0
         0         0         0         0         0         0         0         0
         0         0         0         0         0         0         0         0
         0         0         0         0         0         0         0         0
         0         0         0         0         0         0         0         0
         0         0         0         0         0         0         0         0
         0         0         0         0         0         0         0         0
         0         0         0         0         0         0         0         0
         0         0         0         0         0         0         0         0
         0         0         0         0         0         0         0         0
         0         0         0         0         0         0         0         0
         0         0         0         0         0         0         0         0
         0         0         0         0         0         0         0         0
         0         0         0         0         0         0         0         0
         0         0         0         0         0         0         0         0
         0         0         0         0         0         0         0         0
         0         0         0         0         0         0         0         0
         0         0         0         0         0         0         0         0
         0         0         0         0         0         0         0         0
         0         0         0         0         0         0         0         0
         0         0         0         0         0         0         0         0
         0         0         0         0         0         0         0         0
         0         0         0         0         0         0         0         0
         0         0         0         0         0         0         0         0
         0         0         0         0         0         0         0         0
         0         0         0         0         0         0         0         0
         0         0         0         0         0         0         0         0
         0         0         0         0         0         0         0         0
         0         0         0         0         0         0         0         0
         0         0         0         0         0         0         0         0
         0         0         0         0         0         0         0         0
         0         0         0         0         0         0         0         0
         0         0         0         0         0         0         0         0
         0         0         0         0         0         0         0         0
         0         0         0         0         0         0         0         0
         0         0         0         0         0         0         0         0
         0         0         0         0         0         0         0         0
         0         0         0         0         0         0         0         0
         0         0         0         0         0         0         0         0
         0         0         0         0         0         0         0         0
         0         0         0         0         0         0         0         0
         0         0         0         0         0         0         0         0
         0         0         0         0         0         0         0         0
         0         0         0         0         0         0         0         0
         0         0         0         0         0         0         0         0
         0         0         0         0         0         0         0         0
         0         0         0         0         0         0         0         0
         0         0         0         0         0         0         0         0
         0         0         0         0         0         0         0         0
         0         0         0         0         0         0         0         0
         0         0         0         0         0         0         0         0
         0         0         0         0         0         0         0         0
         0         0         0         0         0         0         0         0
         0         0         0         0         0         0         0         0
         0         0         0         0         0         0         0         0
         0         0         0         0         0         0         0         0
         0         0         0         0         0         0         0         0
         0         0         0         0         0         0         0         0
         0         0         0         0         0         0         0         0
         0         0         0         0         0         0         0         0
         0         0         0         0         0         0         0         0
         0         0         0         0         0         0         0         0
         0         0         0         0         0         0         0         0
         0         0         0         0         0         0         0         0
         0         0         0         0         0         0         0         0
         0         0         0         0         0         0         0         0
         0         0         0         0         0         0         0         0
         0         0         0         0         0         0         0         0
         0         0         0         0         0         0         0         0
         0         0         0         0         0         0         0         0
         0         0         0         0         0         0         0         0
         0         0         0         0         0         0         0         0
         0         0         0         0         0         0         0         0
         0         0         0         0         0         0         0         0
         0         0         0         0         0         0         0         0
         0         0         0         0         0         0         0         0
         0         0         0         0         0         0         0         0
         0         0         0         0         0         0         0         0
         0         0         0         0         0         0         0         0
         0         0         0         0         0         0         0         0
         0         0         0         0         0         0         0         0
         0         0         0         0         0         0         0         0
         0         0         0         0         0         0         0         0
         0         0         0         0         0         0         0         0
         0         0         0         0         0         0         0         0
         0         0         0         0         0         0         0         0
         0         0         0         0         0         0         0         0
         0         0         0         0         0         0         0         0
         0         0         0         0         0         0         0         0
         0         0         0         0         0         0         0         0
         0         0         0         0         0         0         0         0
         0         0         0         0         0         0         0         0
         0         0         0         0         0         0         0         0
         0         0         0         0         0         0         0         0
         0         0         0         0         0         0         0         0
         0         0         0         0         0         0         0         0
         0         0         0         0         0         0         0         0
         0         0         0         0         0         0         0         0
         0         0         0         0         0         0         0         0
         0         0         0         0         0         0         0         0
         0         0         0         0         0         0         0         0
         0         0         0         0         0         0         0         0
         0         0         0         0         0         0         0         0
         0         0         0         0         0         0         0         0
         0         0         0         0         0         0         0         0
         0         0         0         0         0         0         0         0
         0         0         0         0         0         0         0         0
         0         0         0         0         0         0         0         0
         0         0         0         0         0         0         0         0
         0         0         0         0         0         0         0         0
         0         0         0         0         0         0         0         0
         0         0         0         0         0         0         0         0
         0         0         0         0         0         0         0         0
         0         0         0         0         0         0         0         0
         0         0         0         0         0         0         0         0
         0         0         0         0         0         0         0         0
         0         0         0         0         0         0         0         0
         0         0         0         0         0         0         0         0
         0         0         0         0         0         0         0         0
         0         0         0         0         0         0         0         0
         0         0         0         0         0         0         0         0
         0         0         0         0         0         0         0         0
         0         0         0         0         0         0         0         0
         0         0         0         0         0         0         0         0
         0         0         0         0         0         0         0         0
         0         0         0         0         0         0         0         0
         0         0         0         0         0         0         0         0
         0         0         0         0         0         0         0         0
         0         0         0         0         0         0         0         0
         0         0         0         0         0         0         0         0
         0         0         0         0         0         0         0         0
         0         0         0         0         0         0         0         0
         0         0         0         0         0         0         0         0
         0         0         0         0         0         0         0         0
         0         0         0         0         0         0         0         0
         0         0         0         0         0         0         0         0
         0         0         0         0         0         0         0         0
         0         0         0         0         0         0         0         0
         0         0         0         0         0         0         0         0
         0         0         0         0         0         0         0         0
         0         0         0         0         0         0         0         0
         0         0         0         0         0         0         0         0
         0         0         0         0         0         0         0         0
         0         0         0         0         0         0         0         0
         0         0         0         0         0         0         0         0
         0         0         0         0         0         0         0         0
         0         0         0         0         0         0         0         0
         0         0         0         0         0         0         0         0
         0         0         0         0         0         0         0         0
         0         0         0         0         0         0         0         0
         0         0         0         0         0         0         0         0
         0         0         0         0         0         0         0         0
         0         0         0         0         0         0         0         0
         0         0         0         0         0         0         0         0
         0         0         0         0         0         0         0         0
         0         0         0         0         0         0         0         0
         0         0         0         0         0         0         0         0
         0         0         0         0         0         0         0         0
         0         0         0         0         0         0         0         0
         0         0         0         0         0         0         0         0
         0         0         0         0         0         0         0         0
         0         0         0         0         0         0         0         0
         0         0         0         0         0         0         0         0
         0         0         0         0         0         0         0         0
         0         0         0         0         0         0         0         0
         0         0         0         0         0         0         0         0
         0         0         0         0         0         0         0         0
         0         0         0         0         0         0         0         0
         0         0         0         0         0         0         0         0
         0         0         0         0         0         0         0         0
         0         0         0         0         0         0         0         0
         0         0         0         0         0         0         0         0
         0         0         0         0         0         0         0         0
         0         0         0         0         0         0         0         0
         0         0         0         0         0         0         0         0
         0         0         0         0         0         0         0         0
         0         0         0         0         0         0         0         0
         0         0         0         0         0         0         0         0
         0         0         0         0         0         0         0         0
         0         0         0         0         0         0         0         0
         0         0         0         0         0         0         0         0
         0         0         0         0         0         0         0         0
         0         0         0         0         0         0         0         0
         0         0         0         0         0         0         0         0
         0         0         0         0         0         0         0         0
         0         0         0         0         0         0         0         0
         0         0         0         0         0         0         0         0
         0         0         0         0         0         0         0         0
         0         0         0         0         0         0         0         0
         0         0         0         0         0         0         0         0
         0         0         0         0         0         0         0         0
         0         0         0         0         0         0         0         0
         0         0         0         0         0         0         0         0
         0         0         0         0         0         0         0         0
         0         0         0         0         0         0         0         0
         0         0         0         0         0         0         0         0
         0         0         0         0         0         0         0         0
         0         0         0         0         0         0         0         0
         0         0         0         0         0         0         0         0
         0         0         0         0         0         0         0         0
         0         0         0         0         0         0         0         0
         0         0         0         0         0         0         0         0
         0         0         0         0         0         0         0         0
         0         0         0         0         0         0         0         0
         0         0         0         0         0         0         0         0
         0         0         0         0         0         0         0         0
         0         0         0         0         0         0         0         0
         0         0         0         0         0         0         0         0
         0         0         0         0         0         0         0         0
         0         0         0         0         0         0         0         0
         0         0         0         0         0         0         0         0
         0         0         0         0         0         0         0         0
         0         0         0         0         0         0         0         0
         0         0         0         0         0         0         0         0
         0         0         0         0         0         0         0         0
         0         0         0         0         0         0         0         0
         0         0         0         0         0         0         0         0
         0         0         0         0         0         0         0         0
         0         0         0         0         0         0         0         0
         0         0         0         0         0         0         0         0
         0         0         0         0         0         0         0         0
         0         0         0         0         0         0         0         0
         0         0         0         0         0         0         0         0
         0         0         0         0         0         0         0         0
         0         0         0         0         0         0         0         0
         0         0         0         0         0         0         0         0
         0         0         0         0         0         0         0         0
         0         0         0         0         0         0         0         0
         0         0         0         0         0         0         0         0
         0         0         0         0         0         0         0         0
         0         0         0         0         0         0         0         0
         0         0         0         0         0         0         0         0
         0         0         0         0         0         0         0         0
         0         0         0         0         0         0         0         0
         0         0         0         0         0         0         0         0
         0         0         0         0         0         0         0         0
         0         0         0         0         0         0         0         0
         0         0         0         0         0         0         0         0
         0         0         0         0         0         0         0         0
         0         0         0         0         0         0         0         0
         0         0         0         0         0         0         0         0
         0         0         0         0         0         0         0         0
         0         0         0         0         0         0         0         0
         0         0         0         0         0         0         0         0
         0         0         0         0         0         0         0         0
         0         0         0         0         0         0         0         0
         0         0         0         0         0         0         0         0
         0         0         0         0         0         0         0         0
         0         0         0         0         0         0         0         0
         0         0         0         0         0         0         0         0
         0         0         0         0         0         0         0         0
         0         0         0         0         0         0         0         0
         0         0         0         0         0         0         0         0
         0         0         0         0         0         0         0         0
         0         0         0         0         0         0         0         0
         0         0         0         0         0         0         0         0
         0         0         0         0         0         0         0         0
         0         0         0         0         0         0         0         0
         0         0         0         0         0         0         0         0
         0         0         0         0         0         0         0         0
         0         0         0         0         0         0         0         0
         0         0         0         0         0         0         0         0
         0         0         0         0         0         0         0         0
         0         0         0         0         0         0         0         0
         0         0         0         0         0         0         0         0
         0         0         0         0         0         0         0         0
         0         0         0         0         0         0         0         0
         0         0         0         0         0         0         0         0
         0         0         0         0         0         0         0         0
         0         0         0         0         0         0         0         0
         0         0         0         0         0         0         0         0
         0         0         0         0         0         0         0         0
         0         0         0         0         0         0         0         0
         0         0         0         0         0         0         0         0
         0         0         0         0         0         0         0         0
         0         0         0         0         0         0         0         0
         0         0         0         0         0         0         0         0
         0         0         0         0         0         0         0         0
         0         0         0         0         0         0         0         0
         0         0         0         0         0         0         0         0
         0         0         0         0         0         0         0         0
         0         0         0         0         0         0         0         0
         0         0         0         0         0         0         0         0
         0         0         0         0         0         0         0         0
         0         0         0         0         0         0         0         0
         0         0         0         0         0         0         0         0
         0         0         0         0         0         0         0         0
         0         0         0         0         0         0         0         0
         0         0         0         0         0         0         0         0
         0         0         0         0         0         0         0         0
         0         0         0         0         0         0         0         0
         0         0         0         0         0         0         0         0
         0         0         0         0         0         0         0         0
         0         0         0         0         0         0         0         0
         0         0         0         0         0         0         0         0
         0         0         0         0         0         0         0         0
         0         0         0         0         0         0         0         0
         0         0         0         0         0         0         0         0
         0         0         0         0         0         0         0         0
         0         0         0         0         0         0         0         0
         0         0         0         0         0         0         0         0
         0         0         0         0         0         0         0         0
         0         0         0         0         0         0         0         0
         0         0         0         0         0         0         0         0
         0         0         0         0         0         0         0         0
         0         0         0         0         0         0         0         0
         0         0         0         0         0         0         0         0
         0         0         0         0         0         0         0         0
         0         0         0         0         0         0         0         0
         0         0         0         0         0         0         0         0
         0         0         0         0         0         0         0         0
         0         0         0         0         0         0         0         0
         0         0         0         0         0         0         0         0
         0         0         0         0         0         0         0         0
         0         0         0         0         0         0         0         0
         0         0         0         0         0         0         0         0
         0         0         0         0         0         0         0         0
         0         0         0         0         0         0         0         0
         0         0         0         0         0         0         0         0
         0         0         0         0         0         0         0         0
         0         0         0         0         0         0         0         0
         0         0         0         0         0         0         0         0
         0         0         0         0         0         0         0         0
         0         0         0         0         0         0         0         0
         0         0         0         0         0         0         0         0
         0         0         0         0         0         0         0         0
         0         0         0         0         0         0         0         0
         0         0         0         0         0         0         0         0
         0         0         0         0         0         0         0         0
         0         0         0         0         0         0         0         0
         0         0         0         0         0         0         0         0
         0         0         0         0         0         0         0         0
         0         0         0         0         0         0         0         0
         0         0         0         0         0         0         0         0
         0         0         0         0         0         0         0         0
         0         0         0         0         0         0         0         0
         0         0         0         0         0         0         0         0
         0         0         0         0         0         0         0         0
         0         0         0         0         0         0         0         0
         0         0         0         0         0         0         0         0
         0         0         0         0         0         0         0         0
         0         0         0         0         0         0         0         0
         0         0         0         0         0         0         0         0
         0         0         0         0         0         0         0         0
         0         0         0         0         0         0         0         0
         0         0         0         0         0         0         0         0
         0         0         0         0         0         0         0         0
         0         0         0         0         0         0         0         0
         0         0         0         0         0         0         0         0
         0         0         0         0         0         0         0         0
         0         0         0         0         0         0         0         0
         0         0         0         0         0         0         0         0
         0         0         0         0         0         0         0         0
         0         0         0         0         0         0         0         0
         0         0         0         0         0         0         0         0
         0         0         0         0         0         0         0         0
         0         0         0         0         0         0         0         0
         0         0         0         0         0         0         0         0
         0         0         0         0         0         0         0         0
         0         0         0         0         0         0         0         0
         0         0         0         0         0         0         0         0
         0         0         0         0         0         0         0         0
         0         0         0         0         0         0         0         0
         0         0         0         0         0         0         0         0
         0         0         0         0         0         0         0         0
         0         0         0         0         0         0         0         0
         0         0         0         0         0         0         0         0
         0         0         0         0         0         0         0         0
         0         0         0         0         0         0         0         0
         0         0         0         0         0         0         0         0
         0         0         0         0         0         0         0         0
         0         0         0         0         0         0         0         0
         0         0         0         0         0         0         0         0
         0         0         0         0         0         0         0         0
         0         0         0         0         0         0         0         0
         0         0         0         0         0         0         0         0
         0         0         0         0         0         0         0         0
         0         0         0         0         0         0         0         0
         0         0         0         0         0         0         0         0
         0         0         0         0         0         0         0         0
         0         0         0         0         0         0         0         0
         0         0         0         0         0         0         0         0
         0         0         0         0         0         0         0         0
         0         0         0         0         0         0         0         0
         0         0         0         0         0         0         0         0
         0         0         0         0         0         0         0         0
         0         0         0         0         0         0         0         0
         0         0         0         0         0         0         0         0
         0         0         0         0         0         0         0         0
         0         0         0         0         0         0         0         0
         0         0         0         0         0         0         0         0
         0         0         0         0         0         0         0         0
         0         0         0         0         0         0         0         0
         0         0         0         0         0         0         0         0
         0         0         0         0         0         0         0         0
         0         0         0         0         0         0         0         0
         0         0         0         0         0         0         0         0
         0         0         0         0         0         0         0         0
         0         0         0         0         0         0         0         0
         0         0         0         0         0         0         0         0
         0         0         0         0         0         0         0         0
         0         0         0         0         0         0         0         0
         0         0         0         0         0         0         0         0
         0         0         0         0         0         0         0         0
         0         0         0         0         0         0         0         0
         0         0         0         0         0         0         0         0
         0         0         0         0         0         0         0         0
         0         0         0         0         0         0         0         0
         0         0         0         0         0         0         0         0
         0         0         0         0         0         0         0         0
         0         0         0         0         0         0         0         0
         0         0         0         0         0         0         0         0
         0         0         0         0         0         0         0         0
         0         0         0         0         0         0         0         0
         0         0         0         0         0         0         0         0
         0         0         0         0         0         0         0         0
         0         0         0         0         0         0         0         0
         0         0         0         0         0         0         0         0
         0         0         0         0         0         0         0         0
         0         0         0         0         0         0         0         0
         0         0         0         0         0         0         0         0
         0         0         0         0         0         0         0         0
         0         0         0         0         0         0         0         0
         0         0         0         0         0         0         0         0
         0         0         0         0         0         0         0         0
         0         0         0         0         0         0         0         0
         0         0         0         0         0         0         0         0
         0         0         0         0         0         0         0         0
         0         0         0         0         0         0         0         0
         0         0         0         0         0         0         0         0
         0         0         0         0         0         0         0         0
         0         0         0         0         0         0         0         0
         0         0         0         0         0         0         0         0
         0         0         0         0         0         0         0         0
         0         0         0         0         0         0         0         0
         0         0         0         0         0         0         0         0
         0         0         0         0         0         0         0         0
         0         0         0         0         0         0         0         0
         0         0         0         0         0         0         0         0
         0         0         0         0         0         0         0         0
         0         0         0         0         0         0         0         0
         0         0         0         0         0         0         0         0
         0         0         0         0         0         0         0         0
         0         0         0         0         0         0         0         0
         0         0         0         0         0         0         0         0
         0         0         0         0         0         0         0         0
         0         0         0         0         0         0         0         0
         0         0         0         0         0         0         0         0
         0         0         0         0         0         0         0         0
         0         0         0         0         0         0         0         0
         0         0         0         0         0         0         0         0
         0         0         0         0         0         0         0         0
         0         0         0         0         0         0         0         0
         0         0         0         0         0         0         0         0
         0         0         0         0         0         0         0         0
         0         0         0         0         0         0         0         0
         0         0         0         0         0         0         0         0
         0         0         0         0         0         0         0         0
         0         0         0         0         0         0         0         0
         0         0         0         0         0         0         0         0
         0         0         0         0         0         0         0         0
         0         0         0         0         0         0         0         0
         0         0         0         0         0         0         0         0
         0         0         0         0         0         0         0         0
         0         0         0         0         0         0         0         0
         0         0         0         0         0         0         0         0
         0         0         0         0         0         0         0         0
         0         0         0         0         0         0         0         0
         0         0         0         0         0         0         0         0
         0         0         0         0         0         0         0         0
         0         0         0         0         0         0         0         0
         0         0         0         0         0         0         0         0
         0         0         0         0         0         0         0         0
         0         0         0         0         0         0         0         0
         0         0         0         0         0         0         0         0
         0         0         0         0         0         0         0         0
         0         0         0         0         0         0         0         0
         0         0         0         0         0         0         0         0
         0         0         0         0         0         0         0         0
         0         0         0         0         0         0         0         0
         0         0         0         0         0         0         0         0
         0         0         0         0         0         0         0         0
         0         0         0         0         0         0         0         0
         0         0         0         0         0         0         0         0
         0         0         0         0         0         0         0         0
         0         0         0         0         0         0         0         0
         0         0         0         0         0         0         0         0
         0         0         0         0         0         0         0         0
         0         0         0         0         0         0         0         0
         0         0         0         0         0         0         0         0
         0         0         0         0         0         0         0         0
         0         0         0         0         0         0         0         0
         0         0         0         0         0         0         0         0
         0         0         0         0         0         0         0         0
         0         0         0         0         0         0         0         0
         0         0         0         0         0         0         0         0
         0         0         0         0         0         0         0         0
         0         0         0         0         0         0         0         0
         0         0         0         0         0         0         0         0
         0         0         0         0         0         0         0         0
         0         0         0         0         0         0         0         0
         0         0         0         0         0         0         0         0
         0         0         0         0         0         0         0         0
         0         0         0         0         0         0         0         0
         0         0         0         0         0         0         0         0
         0         0         0         0         0         0         0         0
         0         0         0         0         0         0         0         0
         0         0         0         0         0         0         0         0
         0         0         0         0         0         0         0         0
         0         0         0         0         0         0         0         0
         0         0         0         0         0         0         0         0
         0         0         0         0         0         0         0         0
         0         0         0         0         0         0         0         0
         0         0         0         0         0         0         0         0
         0         0         0         0         0         0         0         0
         0         0         0         0         0         0         0         0
         0         0         0         0         0         0         0         0
         0         0         0         0         0         0         0         0
         0         0         0         0         0         0         0         0
         0         0         0         0         0         0         0         0
         0         0         0         0         0         0         0         0
         0         0         0         0         0         0         0         0
         0         0         0         0         0         0         0         0
         0         0         0         0         0         0         0         0
         0         0         0         0         0         0         0         0
         0         0         0         0         0         0         0         0
         0         0         0         0         0         0         0         0
         0         0         0         0         0         0         0         0
         0         0         0         0         0         0         0         0
         0         0         0         0         0         0         0         0
         0         0         0         0         0         0         0         0
         0         0         0         0         0         0         0         0
         0         0         0         0         0         0         0         0
         0         0         0         0         0         0         0         0
         0         0         0         0         0         0         0         0
         0         0         0         0         0         0         0         0
         0         0         0         0         0         0         0         0
         0         0         0         0         0         0         0         0
         0         0         0         0         0         0         0         0
         0         0         0         0         0         0         0         0
         0         0         0         0         0         0         0         0
         0         0         0         0         0         0         0         0
         0         0         0         0         0         0         0         0
         0         0         0         0         0         0         0         0
         0         0         0         0         0         0         0         0
         0         0         0         0         0         0         0         0
         0         0         0         0         0         0         0         0
         0         0         0         0         0         0         0         0
         0         0         0         0         0         0         0         0
         0         0         0         0         0         0         0         0
         0         0         0         0         0         0         0         0
         0         0         0         0         0         0         0         0
         0         0         0         0         0         0         0         0
         0         0         0         0         0         0         0         0
         0         0         0         0         0         0         0         0
         0         0         0         0         0         0         0         0
         0         0         0         0         0         0         0         0
         0         0         0         0         0         0         0         0
         0         0         0         0         0         0         0         0
         0         0         0         0         0         0         0         0
         0         0         0         0         0         0         0         0
         0         0         0         0         0         0         0         0
         0         0         0         0         0         0         0         0
         0         0         0         0         0         0         0         0
         0         0         0         0         0         0         0         0
         0         0         0         0         0         0         0         0
         0         0         0         0         0         0         0         0
         0         0         0         0         0         0         0         0
         0         0         0         0         0         0         0         0
         0         0         0         0         0         0         0         0
         0         0         0         0         0         0         0         0
         0         0         0         0         0         0         0         0
         0         0         0         0         0         0         0         0
         0         0         0         0         0         0         0         0
         0         0         0         0         0         0         0         0
         0         0         0         0         0         0         0         0
         0         0         0         0         0         0         0         0
         0         0         0         0         0         0         0         0
         0         0         0         0         0         0         0         0
         0         0         0         0         0         0         0         0
         0         0         0         0         0         0         0         0
         0         0         0         0         0         0         0         0
         0         0         0         0         0         0         0         0
         0         0         0         0         0         0         0         0
         0         0         0         0         0         0         0         0
         0         0         0         0         0         0         0         0
         0         0         0         0         0         0         0         0
         0         0         0         0         0         0         0         0
         0         0         0         0         0         0         0         0
         0         0         0         0         0         0         0         0
         0         0         0         0         0         0         0         0
         0         0         0         0         0         0         0         0
         0         0         0         0         0         0         0         0
         0         0         0         0         0         0         0         0
         0         0         0         0         0         0         0         0
         0         0         0         0         0         0         0         0
         0         0         0         0         0         0         0         0
         0         0         0         0         0         0         0         0
         0         0         0         0         0         0         0         0
         0         0         0         0         0         0         0         0
         0         0         0         0         0         0         0         0
         0         0         0         0         0         0         0         0
         0         0         0         0         0         0         0         0
         0         0         0         0         0         0         0         0
         0         0         0         0         0         0         0         0
         0         0         0         0         0         0         0         0
         0         0         0         0         0         0         0         0
         0         0         0         0         0         0         0         0
         0         0         0         0         0         0         0         0
         0         0         0         0         0         0         0         0
         0         0         0         0         0         0         0         0
         0         0         0         0         0         0         0         0
         0         0         0         0         0         0         0         0
         0         0         0         0         0         0         0         0
         0         0         0         0         0         0         0         0
         0         0         0         0         0         0         0         0
         0         0         0         0         0         0         0         0
         0         0         0         0         0         0         0         0
         0         0         0         0         0         0         0         0
         0         0         0         0         0         0         0         0
         0         0         0         0         0         0         0         0
         0         0         0         0         0         0         0         0
         0         0         0         0         0         0         0         0
         0         0         0         0         0         0         0         0
         0         0         0         0         0         0         0         0
         0         0         0         0         0         0         0         0
         0         0         0         0         0         0         0         0
         0         0         0         0         0         0         0         0
         0         0         0         0         0         0         0         0
         0         0         0         0         0         0         0         0
         0         0         0         0         0         0         0         0
         0         0         0         0         0         0         0         0
         0         0         0         0         0         0         0         0
         0         0         0         0         0         0         0         0
         0         0         0         0         0         0         0         0
         0         0         0         0         0         0         0         0
         0         0         0         0         0         0         0         0
         0         0         0         0         0         0         0         0
         0         0         0         0         0         0         0         0
         0         0         0         0         0         0         0         0
         0         0         0         0         0         0         0         0
         0         0         0         0         0         0         0         0
         0         0         0         0         0         0         0         0
         0         0         0         0         0         0         0         0
         0         0         0         0         0         0         0         0
         0         0         0         0         0         0         0         0
         0         0         0         0         0         0         0         0
         0         0         0         0         0         0         0         0
         0         0         0         0         0         0         0         0
         0         0         0         0         0         0         0         0
         0         0         0         0         0         0         0         0
         0         0         0         0         0         0         0         0
         0         0         0         0         0         0         0         0
         0         0         0         0         0         0         0         0
         0         0         0         0         0         0         0         0
         0         0         0         0         0         0         0         0
         0         0         0         0         0         0         0         0
         0         0         0         0         0         0         0         0
         0         0         0         0         0         0         0         0
         0         0         0         0         0         0         0         0
         0         0         0         0         0         0         0         0
         0         0         0         0         0         0         0         0
         0         0         0         0         0         0         0         0
         0         0         0         0         0         0         0         0
         0         0         0         0         0         0         0         0
         0         0         0         0         0         0         0         0
         0         0         0         0         0         0         0         0
         0         0         0         0         0         0         0         0
         0         0         0         0         0         0         0         0
         0         0         0         0         0         0         0         0
         0         0         0         0         0         0         0         0
         0         0         0         0         0         0         0         0
         0         0         0         0         0         0         0         0
         0         0         0         0         0         0         0         0
         0         0         0         0         0         0         0         0
         0         0         0         0         0         0         0         0
         0         0         0         0         0         0         0         0
         0         0         0         0         0         0         0         0
         0         0         0         0         0         0         0         0
         0         0         0         0         0         0         0         0
         0         0         0         0         0         0         0         0
         0         0         0         0         0         0         0         0
         0         0         0         0         0         0         0         0
         0         0         0         0         0         0         0         0
         0         0         0         0         0         0         0         0
         0         0         0         0         0         0         0         0
         0         0         0         0         0         0         0         0
         0         0         0         0         0         0         0         0
         0         0         0         0         0         0         0         0
         0         0         0         0         0         0         0         0
         0         0         0         0         0         0         0         0
         0         0         0         0         0         0         0         0
         0         0         0         0         0         0         0         0
         0         0         0         0         0         0         0         0
         0         0         0         0         0         0         0         0
         0         0         0         0         0         0         0         0
         0         0         0         0         0         0         0         0
         0         0         0         0         0         0         0         0
         0         0         0         0         0         0         0         0
         0         0         0         0         0         0         0         0
         0         0         0         0         0         0         0         0
         0         0         0         0         0         0         0         0
         0         0         0         0         0         0         0         0
         0         0         0         0         0         0         0         0
         0         0         0         0         0         0         0         0
         0         0         0         0         0         0         0         0
         0         0         0         0         0         0         0         0
         0         0         0         0         0         0         0         0
         0         0         0         0         0         0         0         0
         0         0         0         0         0         0         0         0
         0         0         0         0         0         0         0         0
         0         0         0         0         0         0         0         0
         0         0         0         0         0         0         0         0
         0         0         0         0         0         0         0         0
         0         0         0         0         0         0         0         0
         0         0         0         0         0         0         0         0
         0         0         0         0         0         0         0         0
         0         0         0         0         0         0         0         0
         0         0         0         0         0         0         0         0
         0         0         0         0         0         0         0         0
         0         0         0         0         0         0         0         0
         0         0         0         0         0         0         0         0
         0         0         0         0         0         0         0         0
         0         0         0         0         0         0         0         0
         0         0         0         0         0         0         0         0
         0         0         0         0         0         0         0         0
         0         0         0         0         0         0         0         0
         0         0         0         0         0         0         0         0
         0         0         0         0         0         0         0         0
         0         0         0         0         0         0         0         0
         0         0         0         0         0         0         0         0
         0         0         0         0         0         0         0         0
         0         0         0         0         0         0         0         0
         0         0         0         0         0         0         0         0
         0         0         0         0         0         0         0         0
         0         0         0         0         0         0         0         0
         0         0         0         0         0         0         0         0
         0         0         0         0         0         0         0         0
         0         0         0         0         0         0         0         0
         0         0         0         0         0         0         0         0
         0         0         0         0         0         0         0         0
         0         0         0         0         0         0         0         0
         0         0         0         0         0         0         0         0
         0         0         0         0         0         0         0         0
         0         0         0         0         0         0         0         0
         0         0         0         0         0         0         0         0
         0         0         0         0         0         0         0         0
         0         0         0         0         0         0         0         0
         0         0         0         0         0         0         0         0
         0         0         0         0         0         0         0         0
         0         0         0         0         0         0         0         0
         0         0         0         0         0         0         0         0
         0         0         0         0         0         0         0         0
         0         0         0         0         0         0         0         0
         0         0         0         0         0         0         0         0
         0         0         0         0         0         0         0         0
         0         0         0         0         0         0         0         0
         0         0         0         0         0         0         0         0
         0         0         0         0         0         0         0         0
         0         0         0         0         0         0         0         0
         0         0         0         0         0         0         0         0
         0         0         0         0         0         0         0         0
         0         0         0         0         0         0         0         0
         0         0         0         0         0         0         0         0
         0         0         0         0         0         0         0         0
         0         0         0         0         0         0         0         0
         0         0         0         0         0         0         0         0
         0         0         0         0         0         0         0         0
         0         0         0         0         0         0         0         0
         0         0         0         0         0         0         0         0
         0         0         0         0         0         0         0         0
         0         0         0         0         0         0         0         0
         0         0         0         0         0         0         0         0
         0         0         0         0         0         0         0         0
         0         0         0         0         0         0         0         0
         0         0         0         0         0         0         0         0
         0         0         0         0         0         0         0         0
         0         0         0         0         0         0         0         0
         0         0         0         0         0         0         0         0
         0         0         0         0         0         0         0         0
         0         0         0         0         0         0         0         0
         0         0         0         0         0         0         0         0
         0         0         0         0         0         0         0         0
         0         0         0         0         0         0         0         0
         0         0         0         0         0         0         0         0
         0         0         0         0         0         0         0         0
         0         0         0         0         0         0         0         0
         0         0         0         0         0         0         0         0
         0         0         0         0         0         0         0         0
         0         0         0         0         0         0         0         0
         0         0         0         0         0         0         0         0
         0         0         0         0         0         0         0         0
         0         0         0         0         0         0         0         0
         0         0         0         0         0         0         0         0
         0         0         0         0         0         0         0         0
         0         0         0         0         0         0         0         0
         0         0         0         0         0         0         0         0
         0         0         0         0         0         0         0         0
         0         0         0         0         0         0         0         0
         0         0         0         0         0         0         0         0
         0         0         0         0         0         0         0         0
         0         0         0         0         0         0         0         0
         0         0         0         0         0         0         0         0
         0         0         0         0         0         0         0         0
         0         0         0         0         0         0         0         0
         0         0         0         0         0         0         0         0
         0         0         0         0         0         0         0         0
         0         0         0         0         0         0         0         0
         0         0         0         0         0         0         0         0
         0         0         0         0         0         0         0         0
         0         0         0         0         0         0         0         0
         0         0         0         0         0         0         0         0
         0         0         0         0         0         0         0         0
         0         0         0         0         0         0         0         0
         0         0         0         0         0         0         0         0
         0         0         0         0         0         0         0         0
         0         0         0         0         0         0         0         0
         0         0         0         0         0         0         0         0
         0         0         0         0         0         0         0         0
         0         0         0         0         0         0         0         0
         0         0         0         0         0         0         0         0
         0         0         0         0         0         0         0         0
         0         0         0         0         0         0         0         0
         0         0         0         0         0         0         0         0
         0         0         0         0         0         0         0         0
         0         0         0         0         0         0         0         0
         0         0         0         0         0         0         0         0
         0         0         0         0         0         0         0         0
         0         0         0         0         0         0         0         0
         0         0         0         0         0         0         0         0
         0         0         0         0         0         0         0         0
         0         0         0         0         0         0         0         0
         0         0         0         0         0         0         0         0
         0         0         0         0         0         0         0         0
         0         0         0         0         0         0         0         0
         0         0         0         0         0         0         0         0
         0         0         0         0         0         0         0         0
         0         0         0         0         0         0         0         0
         0         0         0         0         0         0         0         0
         0         0         0         0         0         0         0         0
         0         0         0         0         0         0         0         0
         0         0         0         0         0         0         0         0
         0         0         0         0         0         0         0         0
         0         0         0         0         0         0         0         0
         0         0         0         0         0         0         0         0
         0         0         0         0         0         0         0         0
         0         0         0         0         0         0         0         0
         0         0         0         0         0         0         0         0
         0         0         0         0         0         0         0         0
         0         0         0         0         0         0         0         0
         0         0         0         0         0         0         0         0
         0         0         0         0         0         0         0         0
         0         0         0         0         0         0         0         0
         0         0         0         0         0         0         0         0
         0         0         0         0         0         0         0         0
         0         0         0         0         0         0         0         0
         0         0         0         0         0         0         0         0
         0         0         0         0         0         0         0         0
         0         0         0         0         0         0         0         0
         0         0         0         0         0         0         0         0
         0         0         0         0         0         0         0         0
         0         0         0         0         0         0         0         0
         0         0         0         0         0         0         0         0
         0         0         0         0         0         0         0         0
         0         0         0         0         0         0         0         0
         0         0         0         0         0         0         0         0
         0         0         0         0         0         0         0         0
         0         0         0         0         0         0         0         0
         0         0         0         0         0         0         0         0
         0         0         0         0         0         0         0         0
         0         0         0         0         0         0         0         0
         0         0         0         0         0         0         0         0
         0         0         0         0         0         0         0         0
         0         0         0         0         0         0         0         0
         0         0         0         0         0         0         0         0
         0         0         0         0         0         0         0         0
         0         0         0         0         0         0         0         0
         0         0         0         0         0         0         0         0
         0         0         0         0         0         0         0         0
         0         0         0         0         0         0         0         0
         0         0         0         0         0         0         0         0
         0         0         0         0         0         0         0         0
         0         0         0         0         0         0         0         0
         0         0         0         0         0         0         0         0
         0         0         0         0         0         0         0         0
         0         0         0         0         0         0         0         0
         0         0         0         0         0         0         0         0
         0         0         0         0         0         0         0         0
         0         0         0         0         0         0         0         0
         0         0         0         0         0         0         0         0
         0         0         0         0         0         0         0         0
         0         0         0         0         0         0         0         0
         0         0         0         0         0         0         0         0
         0         0         0         0         0         0         0         0
         0         0         0         0         0         0         0         0
         0         0         0         0         0         0         0         0
         0         0         0         0         0         0         0         0
         0         0         0         0         0         0         0         0
         0         0         0         0         0         0         0         0
         0         0         0         0         0         0         0         0
         0         0         0         0         0         0         0         0
         0         0         0         0         0         0         0         0
         0         0         0         0         0         0         0         0
         0         0         0         0         0         0         0         0
         0         0         0         0         0         0         0         0
         0         0         0         0         0         0         0         0
         0         0         0         0         0         0         0         0
         0         0         0         0         0         0         0         0
         0         0         0         0         0         0         0         0
         0         0         0         0         0         0         0         0
         0         0         0         0         0         0         0         0
         0         0         0         0         0         0         0         0
         0         0         0         0         0         0         0         0
         0         0         0         0         0         0         0         0
         0         0         0         0         0         0         0         0
         0         0         0         0         0         0         0         0
         0         0         0         0         0         0         0         0
         0         0         0         0         0         0         0         0
         0         0         0         0         0         0         0         0
         0         0         0         0         0         0         0         0
         0         0         0         0         0         0         0         0
         0         0         0         0         0         0         0         0
         0         0         0         0         0         0         0         0
         0         0         0         0         0         0         0         0
         0         0         0         0         0         0         0         0
         0         0         0         0         0         0         0         0
         0         0         0         0         0         0         0         0
         0         0         0         0         0         0         0         0
         0         0         0         0         0         0         0         0
         0         0         0         0         0         0         0         0
         0         0         0         0         0         0         0         0
         0         0         0         0         0         0         0         0
         0         0         0         0         0         0         0         0
         0         0         0         0         0         0         0         0
         0         0         0         0         0         0         0         0
         0         0         0         0         0         0         0         0
         0         0         0         0         0         0         0         0
         0         0         0         0         0         0         0         0
         0         0         0         0         0         0         0         0
         0         0         0         0         0         0         0         0
         0         0         0         0         0         0         0         0
         0         0         0         0         0         0         0         0
         0         0         0         0         0         0         0         0
         0         0         0         0         0         0         0         0
         0         0         0         0         0         0         0         0
         0         0         0         0         0         0         0         0
         0         0         0         0         0         0         0         0
         0         0         0         0         0         0         0         0
         0         0         0         0         0         0         0         0
         0         0         0         0         0         0         0         0
         0         0         0         0         0         0         0         0
         0         0         0         0         0         0         0         0
         0         0         0         0         0         0         0         0
         0         0         0         0         0         0         0         0
         0         0         0         0         0         0         0         0
         0         0         0         0         0         0         0         0
         0         0         0         0         0         0         0         0
         0         0         0         0         0         0         0         0
         0         0         0         0         0         0         0         0
         0         0         0         0         0         0         0         0
         0         0         0         0         0         0         0         0
         0         0         0         0         0         0         0         0
         0         0         0         0         0         0         0         0
         0         0         0         0         0         0         0         0
         0         0         0         0         0         0         0         0
         0         0         0         0         0         0         0         0
         0         0         0         0         0         0         0         0
         0         0         0         0         0         0         0         0
         0         0         0         0         0         0         0         0
         0         0         0         0         0         0         0         0
         0         0         0         0         0         0         0         0
         0         0         0         0         0         0         0         0
         0         0         0         0         0         0         0         0
         0         0         0         0         0         0         0         0
         0         0         0         0         0         0         0         0
         0         0         0         0         0         0         0         0
         0         0         0         0         0         0         0         0
         0         0         0         0         0         0         0         0
         0         0         0         0         0         0         0         0
         0         0         0         0         0         0         0         0
         0         0         0         0         0         0         0         0
         0         0         0         0         0         0         0         0
         0         0         0         0         0         0         0         0
         0         0         0         0         0         0         0         0
         0         0         0         0         0         0         0         0
         0         0         0         0         0         0         0         0
         0         0         0         0         0         0         0         0
         0         0         0         0         0         0         0         0
         0         0         0         0         0         0         0         0
         0         0         0         0         0         0         0         0
         0         0         0         0         0         0         0         0
         0         0         0         0         0         0         0         0
         0         0         0         0         0         0         0         0
         0         0         0         0         0         0         0         0
         0         0         0         0         0         0         0         0
         0         0         0         0         0         0         0         0
         0         0         0         0         0         0         0         0
         0         0         0         0         0         0         0         0
         0         0         0         0         0         0         0         0
         0         0         0         0         0         0         0         0
         0         0         0         0         0         0         0         0
         0         0         0         0         0         0         0         0
         0         0         0         0         0         0         0         0
         0         0         0         0         0         0         0         0
         0         0         0         0         0         0         0         0
         0         0         0         0         0         0         0         0
         0         0         0         0         0         0         0         0
         0         0         0         0         0         0         0         0
         0         0         0         0         0         0         0         0
         0         0         0         0         0         0         0         0
         0         0         0         0         0         0         0         0
         0         0         0         0         0         0         0         0
         0         0         0         0         0         0         0         0
         0         0         0         0         0         0         0         0
         0         0         0         0         0         0         0         0
         0         0         0         0         0         0         0         0
         0         0         0         0         0         0         0         0
         0         0         0         0         0         0         0         0
         0         0         0         0         0         0         0         0
         0         0         0         0         0         0         0         0
         0         0         0         0         0         0         0         0
         0         0         0         0         0         0         0         0
         0         0         0         0         0         0         0         0
         0         0         0         0         0         0         0         0
         0         0         0         0         0         0         0         0
         0         0         0         0         0         0         0         0
         0         0         0         0         0         0         0         0
         0         0         0         0         0         0         0         0
         0         0         0         0         0         0         0         0
         0         0         0         0         0         0         0         0
         0         0         0         0         0         0         0         0
         0         0         0         0         0         0         0         0
         0         0         0         0         0         0         0         0
         0         0         0         0         0         0         0         0
         0         0         0         0         0         0         0         0
         0         0         0         0         0         0         0         0
         0         0         0         0         0         0         0         0
         0         0         0         0         0         0         0         0
         0         0         0         0         0         0         0         0
         0         0         0         0         0         0         0         0
         0         0         0         0         0         0         0         0
         0         0         0         0         0         0         0         0
         0         0         0         0         0         0         0         0
         0         0         0         0         0         0         0         0
         0         0         0         0         0         0         0         0
         0         0         0         0         0         0         0         0
         0         0         0         0         0         0         0         0
         0         0         0         0         0         0         0         0
         0         0         0         0         0         0         0         0
         0         0         0         0         0         0         0         0
         0         0         0         0         0         0         0         0
         0         0         0         0         0         0         0         0
         0         0         0         0         0         0         0         0
         0         0         0         0         0         0         0         0
         0         0         0         0         0         0         0         0
         0         0         0         0         0         0         0         0
         0         0         0         0         0         0         0         0
         0         0         0         0         0         0         0         0
         0         0         0         0         0         0         0         0
         0         0         0         0         0         0         0         0
         0         0         0         0         0         0         0         0
         0         0         0         0         0         0         0         0
         0         0         0         0         0         0         0         0
         0         0         0         0         0         0         0         0
         0         0         0         0         0         0         0         0
         0         0         0         0         0         0         0         0
         0         0         0         0         0         0         0         0
         0         0         0         0         0         0         0         0
         0         0         0         0         0         0         0         0
         0         0         0         0         0         0         0         0
         0         0         0         0         0         0         0         0
         0         0         0         0         0         0         0         0
         0         0         0         0         0         0         0         0
         0         0         0         0         0         0         0         0
         0         0         0         0         0         0         0         0
         0         0         0         0         0         0         0         0
         0         0         0         0         0         0         0         0
         0         0         0         0         0         0         0         0
         0         0         0         0         0         0         0         0
         0         0         0         0         0         0         0         0
         0         0         0         0         0         0         0         0
         0         0         0         0         0         0         0         0
         0         0         0         0         0         0         0         0
         0         0         0         0         0         0         0         0
         0         0         0         0         0         0         0         0
         0         0         0         0         0         0         0         0
         0         0         0         0         0         0         0         0
         0         0         0         0         0         0         0         0
         0         0         0         0         0         0         0         0
         0         0         0         0         0         0         0         0
         0         0         0         0         0         0         0         0
         0         0         0         0         0         0         0         0
         0         0         0         0         0         0         0         0
         0         0         0         0         0         0         0         0
         0         0         0         0         0         0         0         0
         0         0         0         0         0         0         0         0
         0         0         0         0         0         0         0         0
         0         0         0         0         0         0         0         0
         0         0         0         0         0         0         0         0
         0         0         0         0         0         0         0         0
         0         0         0         0         0         0         0         0
         0         0         0         0         0         0         0         0
         0         0         0         0         0         0         0         0
         0         0         0         0         0         0         0         0
         0         0         0         0         0         0         0         0
         0         0         0         0         0         0         0         0
         0         0         0         0         0         0         0         0
         0         0         0         0         0         0         0         0
         0         0         0         0         0         0         0         0
         0         0         0         0         0         0         0         0
         0         0         0         0         0         0         0         0
         0         0         0         0         0         0         0         0
         0         0         0         0         0         0         0         0
         0         0         0         0         0         0         0         0
         0         0         0         0         0         0         0         0
         0         0         0         0         0         0         0         0
         0         0         0         0         0         0         0         0
         0         0         0         0         0         0         0         0
         0         0         0         0         0         0         0         0
         0         0         0         0         0         0         0         0
         0         0         0         0         0         0         0         0
         0         0         0         0         0         0         0         0
         0         0         0         0         0         0         0         0
         0         0         0         0         0         0         0         0
         0         0         0         0         0         0         0         0
         0         0         0         0         0         0         0         0
         0         0         0         0         0         0         0         0
         0         0         0         0         0         0         0         0
         0         0         0         0         0         0         0         0
         0         0         0         0         0         0         0         0
         0         0         0         0         0         0         0         0
         0         0         0         0         0         0         0         0
         0         0         0         0         0         0         0         0
         0         0         0         0         0         0         0         0
         0         0         0         0         0         0         0         0
         0         0         0         0         0         0         0         0
         0         0         0         0         0         0         0         0
         0         0         0         0         0         0         0         0
         0         0         0         0         0         0         0         0
         0         0         0         0         0         0         0         0
         0         0         0         0         0         0         0         0
         0         0         0         0         0         0         0         0
         0         0         0         0         0         0         0         0
         0         0         0         0         0         0         0         0
         0         0         0         0         0         0         0         0
         0         0         0         0         0         0         0         0
         0         0         0         0         0         0         0         0
         0         0         0         0         0         0         0         0
         0         0         0         0         0         0         0         0
         0         0         0         0         0         0         0         0
         0         0         0         0         0         0         0         0
         0         0         0         0         0         0         0         0
         0         0         0         0         0         0         0         0
         0         0         0         0         0         0         0         0
         0         0         0         0         0         0         0         0
         0         0         0         0         0         0         0         0
         0         0         0         0         0         0         0         0
         0         0         0         0         0         0         0         0
         0         0         0         0         0         0         0         0
         0         0         0         0         0         0         0         0
         0         0         0         0         0         0         0         0
         0         0         0         0         0         0         0         0
         0         0         0         0         0         0         0         0
         0         0         0         0         0         0         0         0
         0         0         0         0         0         0         0         0
         0         0         0         0         0         0         0         0
         0         0         0         0         0         0         0         0
         0         0         0         0         0         0         0         0
         0         0         0         0         0         0         0         0
         0         0         0         0         0         0         0         0
         0         0         0         0         0         0         0         0
         0         0         0         0         0         0         0         0
         0         0         0         0         0         0         0         0
         0         0         0         0         0         0         0         0
         0         0         0         0         0         0         0         0
         0         0         0         0         0         0         0         0
         0         0         0         0         0         0         0         0
         0         0         0         0         0         0         0         0
         0         0         0         0         0         0         0         0
         0         0         0         0         0         0         0         0
         0         0         0         0         0         0         0         0
         0         0         0         0         0         0         0         0
         0         0         0         0         0         0         0         0
         0         0         0         0         0         0         0         0
         0         0         0         0         0         0         0         0
         0         0         0         0         0         0         0         0
         0         0         0         0         0         0         0         0
         0         0         0         0         0         0         0         0
         0         0         0         0         0         0         0         0
         0         0         0         0         0         0         0         0
         0         0         0         0         0         0         0         0
         0         0         0         0         0         0         0         0
         0         0         0         0         0         0         0         0
         0         0         0         0         0         0         0         0
         0         0         0         0         0         0         0         0
         0         0         0         0         0         0         0         0
         0         0         0         0         0         0         0         0
         0         0         0         0         0         0         0         0
         0         0         0         0         0         0         0         0
         0         0         0         0         0         0         0         0
         0         0         0         0         0         0         0         0
         0         0         0         0         0         0         0         0
         0         0         0         0         0         0         0         0
         0         0         0         0         0         0         0         0
         0         0         0         0         0         0         0         0
         0         0         0         0         0         0         0         0
         0         0         0         0         0         0         0         0
         0         0         0         0         0         0         0         0
         0         0         0         0         0         0         0         0
         0         0         0         0         0         0         0         0
         0         0         0         0         0         0         0         0
         0         0         0         0         0         0         0         0
         0         0         0         0         0         0         0         0
         0         0         0         0         0         0         0         0
         0         0         0         0         0         0         0         0
         0         0         0         0         0         0         0         0
         0         0         0         0         0         0         0         0
         0         0         0         0         0         0         0         0
         0         0         0         0         0         0         0         0
         0         0         0         0         0         0         0         0
         0         0         0         0         0         0         0         0
         0         0         0         0         0         0         0         0
         0         0         0         0         0         0         0         0
         0         0         0         0         0         0         0         0
         0         0         0         0         0         0         0         0
         0         0         0         0         0         0         0         0
         0         0         0         0         0         0         0         0
         0         0         0         0         0         0         0         0
         0         0         0         0         0         0         0         0
         0         0         0         0         0         0         0         0
         0         0         0         0         0         0         0         0
         0         0         0         0         0         0         0         0
         0         0         0         0         0         0         0         0
         0         0         0         0         0         0         0         0
         0         0         0         0         0         0         0         0
         0         0         0         0         0         0         0         0
         0         0         0         0         0         0         0         0
         0         0         0         0         0         0         0         0
         0         0         0         0         0         0         0         0
         0         0         0         0         0         0         0         0
         0         0         0         0         0         0         0         0
         0         0         0         0         0         0         0         0
         0         0         0         0         0         0         0         0
         0         0         0         0         0         0         0         0
         0         0         0         0         0         0         0         0
         0         0         0         0         0         0         0         0
         0         0         0         0         0         0         0         0
         0         0         0         0         0         0         0         0
         0         0         0         0         0         0         0         0
         0         0         0         0         0         0         0         0
         0         0         0         0         0         0         0         0
         0         0         0         0         0         0         0         0
         0         0         0         0         0         0         0         0
         0         0         0         0         0         0         0         0
         0         0         0         0         0         0         0         0
         0         0         0         0         0         0         0         0
         0         0         0         0         0         0         0         0
         0         0         0         0         0         0         0         0
         0         0         0         0         0         0         0         0
         0         0         0         0         0         0         0         0
         0         0         0         0         0         0         0         0
         0         0         0         0         0         0         0         0
         0         0         0         0         0         0         0         0
         0         0         0         0         0         0         0         0
         0         0         0         0         0         0         0         0
         0         0         0         0         0         0         0         0
         0         0         0         0         0         0         0         0
         0         0         0         0         0         0         0         0
         0         0         0         0         0         0         0         0
         0         0         0         0         0         0         0         0
         0         0         0         0         0         0         0         0
         0         0         0         0         0         0         0         0
         0         0         0         0         0         0         0         0
         0         0         0         0         0         0         0         0
         0         0         0         0         0         0         0         0
         0         0         0         0         0         0         0         0
         0         0         0         0         0         0         0         0
         0         0         0         0         0         0         0         0
         0         0         0         0         0         0         0         0
         0         0         0         0         0         0         0         0
         0         0         0         0         0         0         0         0
         0         0         0         0         0         0         0         0
         0         0         0         0         0         0         0         0
         0         0         0         0         0         0         0         0
         0         0         0         0         0         0         0         0
         0         0         0         0         0         0         0         0
         0         0         0         0         0         0         0         0
         0         0         0         0         0         0         0         0
         0         0         0         0         0         0         0         0
         0         0         0         0         0         0         0         0
         0         0         0         0         0         0         0         0
         0         0         0         0         0         0         0         0
         0         0         0         0         0         0         0         0
         0         0         0         0         0         0         0         0
         0         0         0         0         0         0         0         0
         0         0         0         0         0         0         0         0
         0         0         0         0         0         0         0         0
         0         0         0         0         0         0         0         0
         0         0         0         0         0         0         0         0
         0         0         0         0         0         0         0         0
         0         0         0         0         0         0         0         0
         0         0         0         0         0         0         0         0
         0         0         0         0         0         0         0         0
         0         0         0         0         0         0         0         0
         0         0         0         0         0         0         0         0
         0         0         0         0         0         0         0         0
         0         0         0         0         0         0         0         0
         0         0         0         0         0         0         0         0
         0         0         0         0         0         0         0         0
         0         0         0         0         0         0         0         0
         0         0         0         0         0         0         0         0
         0         0         0         0         0         0         0         0
         0         0         0         0         0         0         0         0
         0         0         0         0         0         0         0         0
         0         0         0         0         0         0         0         0
         0         0         0         0         0         0         0         0
         0         0         0         0         0         0         0         0
         0         0         0         0         0         0         0         0
         0         0         0         0         0         0         0         0
         0         0         0         0         0         0         0         0
         0         0         0         0         0         0         0         0
         0         0         0         0         0         0         0         0
         0         0         0         0         0         0         0         0
         0         0         0         0         0         0         0         0
         0         0         0         0         0         0         0         0
         0         0         0         0         0         0         0         0
         0         0         0         0         0         0         0         0
         0         0         0         0         0         0         0         0
         0         0         0         0         0         0         0         0
         0         0         0         0         0         0         0         0
         0         0         0         0         0         0         0         0
         0         0         0         0         0         0         0         0
         0         0         0         0         0         0         0         0
         0         0         0         0         0         0         0         0
         0         0         0         0         0         0         0         0
         0         0         0         0         0         0         0         0
         0         0         0         0         0         0         0         0
         0         0         0         0         0         0         0         0
         0         0         0         0         0         0         0         0
         0         0         0         0         0         0         0         0
         0         0         0         0         0         0         0         0
         0         0         0         0         0         0         0         0
         0         0         0         0         0         0         0         0
         0         0         0         0         0         0         0         0
         0         0         0         0         0         0         0         0
         0         0         0         0         0         0         0         0
         0         0         0         0         0         0         0         0
         0         0         0         0         0         0         0         0
         0         0         0         0         0         0         0         0
         0         0         0         0         0         0         0         0
         0         0         0         0         0         0         0         0
         0         0         0         0         0         0         0         0
         0         0         0         0         0         0         0         0
         0         0         0         0         0         0         0         0
         0         0         0         0         0         0         0         0
         0         0         0         0         0         0         0         0
         0         0         0         0         0         0         0         0
         0         0         0         0         0         0         0         0
         0         0         0         0         0         0         0         0
         0         0         0         0         0         0         0         0
         0         0         0         0         0         0         0         0
         0         0         0         0         0         0         0         0
         0         0         0         0         0         0         0         0
         0         0         0         0         0         0         0         0
         0         0         0         0         0         0         0         0
         0         0         0         0         0         0         0         0
         0         0         0         0         0         0         0         0
         0         0         0         0         0         0         0         0
         0         0         0         0         0         0         0         0
         0         0         0         0         0         0         0         0
         0         0         0         0         0         0         0         0
         0         0         0         0         0         0         0         0
         0         0         0         0         0         0         0         0
         0         0         0         0         0         0         0         0
         0         0         0         0         0         0         0         0
         0         0         0         0         0         0         0         0
         0         0         0         0         0         0         0         0
         0         0         0         0         0         0         0         0
         0         0         0         0         0         0         0         0
         0         0         0         0         0         0         0         0
         0         0         0         0         0         0         0         0
         0         0         0         0         0         0         0         0
         0         0         0         0         0         0         0         0
         0         0         0         0         0         0         0         0
         0         0         0         0         0         0         0         0
         0         0         0         0         0         0         0         0
         0         0         0         0         0         0         0         0
         0         0         0         0         0         0         0         0
         0         0         0         0         0         0         0         0
         0         0         0         0         0         0         0         0
         0         0         0         0         0         0         0         0
         0         0         0         0         0         0         0         0
         0         0         0         0         0         0         0         0
         0         0         0         0         0         0         0         0
         0         0         0         0         0         0         0         0
         0         0         0         0         0         0         0         0
         0         0         0         0         0         0         0         0
         0         0         0         0         0         0         0         0
         0         0         0         0         0         0         0         0
         0         0         0         0         0         0         0         0
         0         0         0         0         0         0         0         0
         0         0         0         0         0         0         0         0
         0         0         0         0         0         0         0         0
         0         0         0         0         0         0         0         0
         0         0         0         0         0         0         0         0
         0         0         0         0         0         0         0         0
         0         0         0         0         0         0         0         0
         0         0         0         0         0         0         0         0
         0         0         0         0         0         0         0         0
         0         0         0         0         0         0         0         0
         0         0         0         0         0         0         0         0
         0         0         0         0         0         0         0         0
         0         0         0         0         0         0         0         0
         0         0         0         0         0         0         0         0
         0         0         0         0         0         0         0         0
         0         0         0         0         0         0         0         0
         0         0         0         0         0         0         0         0
         0         0         0         0         0         0         0         0
         0         0         0         0         0         0         0         0
         0         0         0         0         0         0         0         0
         0         0         0         0         0         0         0         0
         0         0         0         0         0         0         0         0
         0         0         0         0         0         0         0         0
         0         0         0         0         0         0         0         0
         0         0         0         0         0         0         0         0
         0         0         0         0         0         0         0         0
         0         0         0         0         0         0         0         0
         0         0         0         0         0         0         0         0
         0         0         0         0         0         0         0         0
         0         0         0         0         0         0         0         0
         0         0         0         0         0         0         0         0
         0         0         0         0         0         0         0         0
         0         0         0         0         0         0         0         0
         0         0         0         0         0         0         0         0
         0         0         0         0         0         0         0         0
         0         0         0         0         0         0         0         0
         0         0         0         0         0         0         0         0
         0         0         0         0         0         0         0         0
         0         0         0         0         0         0         0         0
         0         0         0         0         0         0         0         0
         0         0         0         0         0         0         0         0
         0         0         0         0         0         0         0         0
         0         0         0         0         0         0         0         0
         0         0         0         0         0         0         0         0
         0         0         0         0         0         0         0         0
         0         0         0         0         0         0         0         0
         0         0         0         0         0         0         0         0
         0         0         0         0         0         0         0         0
         0         0         0         0         0         0         0         0
         0         0         0         0         0         0         0         0
         0         0         0         0         0         0         0         0
         0         0         0         0         0         0         0         0
         0         0         0         0         0         0         0         0
         0         0         0         0         0         0         0         0
         0         0         0         0         0         0         0         0
         0         0         0         0         0         0         0         0
         0         0         0         0         0         0         0         0
         0         0         0         0         0         0         0         0
         0         0         0         0         0         0         0         0
         0         0         0         0         0         0         0         0
         0         0         0         0         0         0         0         0
         0         0         0         0         0         0         0         0
         0         0         0         0         0         0         0         0
         0         0         0         0         0         0         0         0
         0         0         0         0         0         0         0         0
         0         0         0         0         0         0         0         0
         0         0         0         0         0         0         0         0
         0         0         0         0         0         0         0         0
         0         0         0         0         0         0         0         0
         0         0         0         0         0         0         0         0
         0         0         0         0         0         0         0         0
         0         0         0         0         0         0         0         0
         0         0         0         0         0         0         0         0
         0         0         0         0         0         0         0         0
         0         0         0         0         0         0         0         0
         0         0         0         0         0         0         0         0
         0         0         0         0         0         0         0         0
         0         0         0         0         0         0         0         0
         0         0         0         0         0         0         0         0
         0         0         0         0         0         0         0         0
         0         0         0         0         0         0         0         0
         0         0         0         0         0         0         0         0
         0         0         0         0         0         0         0         0
         0         0         0         0         0         0         0         0
         0         0         0         0         0         0         0         0
         0         0         0         0         0         0         0         0
         0         0         0         0         0         0         0         0
         0         0         0         0         0         0         0         0
         0         0         0         0         0         0         0         0
         0         0         0         0         0         0         0         0
         0         0         0         0         0         0         0         0
         0         0         0         0         0         0         0         0
         0         0         0         0         0         0         0         0
         0         0         0         0         0         0         0         0
         0         0         0         0         0         0         0         0
         0         0         0         0         0         0         0         0
         0         0         0         0         0         0         0         0
         0         0         0         0         0         0         0         0
         0         0         0         0         0         0         0         0
         0         0         0         0         0         0         0         0
         0         0         0         0         0         0         0         0
         0         0         0         0         0         0         0         0
         0         0         0         0         0         0         0         0
         0         0         0         0         0         0         0         0
         0         0         0         0         0         0         0         0
         0         0         0         0         0         0         0         0
         0         0         0         0         0         0         0         0
         0         0         0         0         0         0         0         0
         0         0         0         0         0         0         0         0
         0         0         0         0         0         0         0         0
         0         0         0         0         0         0         0         0
         0         0         0         0         0         0         0         0
         0         0         0         0         0         0         0         0
         0         0         0         0         0         0         0         0
         0         0         0         0         0         0         0         0
         0         0         0         0         0         0         0         0
         0         0         0         0         0         0         0         0
         0         0         0         0         0         0         0         0
         0         0         0         0         0         0         0         0
         0         0         0         0         0         0         0         0
         0         0         0         0         0         0         0         0
         0         0         0         0         0         0         0         0
         0         0         0         0         0         0         0         0
         0         0         0         0         0         0         0         0
         0         0         0         0         0         0         0         0
         0         0         0         0         0         0         0         0
         0         0         0         0         0         0         0         0
         0         0         0         0         0         0         0         0
         0         0         0         0         0         0         0         0
         0         0         0         0         0         0         0         0
         0         0         0         0         0         0         0         0
         0         0         0         0         0         0         0         0
         0         0         0         0         0         0         0         0
         0         0         0         0         0         0         0         0
         0         0         0         0         0         0         0         0
         0         0         0         0         0         0         0         0
         0         0         0         0         0         0         0         0
         0         0         0         0         0         0         0         0
         0         0         0         0         0         0         0         0
         0         0         0         0         0         0         0         0
         0         0         0         0         0         0         0         0
         0         0         0         0         0         0         0         0
         0         0         0         0         0         0         0         0
         0         0         0         0         0         0         0         0
         0         0         0         0         0         0         0         0
         0         0         0         0         0         0         0         0
         0         0         0         0         0         0         0         0
         0         0         0         0         0         0         0         0
         0         0         0         0         0         0         0         0
         0         0         0         0         0         0         0         0
         0         0         0         0         0         0         0         0
         0         0         0         0         0         0         0         0
         0         0         0         0         0         0         0         0
         0         0         0         0         0         0         0         0
         0         0         0         0         0         0         0         0
         0         0         0         0         0         0         0         0
         0         0         0         0         0         0         0         0
         0         0         0         0         0         0         0         0
         0         0         0         0         0         0         0         0
         0         0         0         0         0         0         0         0
         0         0         0         0         0         0         0         0
         0         0         0         0         0         0         0         0
         0         0         0         0         0         0         0         0
         0         0         0         0         0         0         0         0
         0         0         0         0         0         0         0         0
         0         0         0         0         0         0         0         0
         0         0         0         0         0         0         0         0
         0         0         0         0         0         0         0         0
         0         0         0         0         0         0         0         0
         0         0         0         0         0         0         0         0
         0         0         0         0         0         0         0         0
         0         0         0         0         0         0         0         0
         0         0         0         0         0         0         0         0
         0         0         0         0         0         0         0         0
         0         0         0         0         0         0         0         0
         0         0         0         0         0         0         0         0
         0         0         0         0         0         0         0         0
         0         0         0         0         0         0         0         0
         0         0         0         0         0         0         0         0
         0         0         0         0         0         0         0         0
         0         0         0         0         0         0         0         0
         0         0         0         0         0         0         0         0
         0         0         0         0         0         0         0         0
         0         0         0         0         0         0         0         0
         0         0         0         0         0         0         0         0
         0         0         0         0         0         0         0         0
         0         0         0         0         0         0         0         0
         0         0         0         0         0         0         0         0
         0         0         0         0         0         0         0         0
         0         0         0         0         0         0         0         0
         0         0         0         0         0         0         0         0
         0         0         0         0         0         0         0         0
         0         0         0         0         0         0         0         0
         0         0         0         0         0         0         0         0
         0         0         0         0         0         0         0         0
         0         0         0         0         0         0         0         0
         0         0         0         0         0         0         0         0
         0         0         0         0         0         0         0         0
         0         0         0         0         0         0         0         0
         0         0         0         0         0         0         0         0
         0         0         0         0         0         0         0         0
         0         0         0         0         0         0         0         0
         0         0         0         0         0         0         0         0
         0         0         0         0         0         0         0         0
         0         0         0         0         0         0         0         0
         0         0         0         0         0         0         0         0
         0         0         0         0         0         0         0         0
         0         0         0         0         0         0         0         0
         0         0         0         0         0         0         0         0
         0         0         0         0         0         0         0         0
         0         0         0         0         0         0         0         0
         0         0         0         0         0         0         0         0
         0         0         0         0         0         0         0         0
         0         0         0         0         0         0         0         0
         0         0         0         0         0         0         0         0
         0         0         0         0         0         0         0         0
         0         0         0         0         0         0         0         0
         0         0         0         0         0         0         0         0
         0         0         0         0         0         0         0         0
         0         0         0         0         0         0         0         0
         0         0         0         0         0         0         0         0
         0         0         0         0         0         0         0         0
         0         0         0         0         0         0         0         0
         0         0         0         0         0         0         0         0
         0         0         0         0         0         0         0         0
         0         0         0         0         0         0         0         0
         0         0         0         0         0         0         0         0
         0         0         0         0         0         0         0         0
         0         0         0         0         0         0         0         0
         0         0         0         0         0         0         0         0
         0         0         0         0         0         0         0         0
         0         0         0         0         0         0         0         0
         0         0         0         0         0         0         0         0
         0         0         0         0         0         0         0         0
         0         0         0         0         0         0         0         0
         0         0         0         0         0         0         0         0
         0         0         0         0         0         0         0         0
         0         0         0         0         0         0         0         0
         0         0         0         0         0         0         0         0
         0         0         0         0         0         0         0         0
         0         0         0         0         0         0         0         0
         0         0         0         0         0         0         0         0
         0         0         0         0         0         0         0         0
         0         0         0         0         0         0         0         0
         0         0         0         0         0         0         0         0
         0         0         0         0         0         0         0         0
         0         0         0         0         0         0         0         0
         0         0         0         0         0         0         0         0
         0         0         0         0         0         0         0         0
         0         0         0         0         0         0         0         0
         0         0         0         0         0         0         0         0
         0         0         0         0         0         0         0         0
         0         0         0         0         0         0         0         0
         0         0         0         0         0         0         0         0
         0         0         0         0         0         0         0         0
         0         0         0         0         0         0         0         0
         0         0         0         0         0         0         0         0
         0         0         0         0         0         0         0         0
         0         0         0         0         0         0         0         0
         0         0         0         0         0         0         0         0
         0         0         0         0         0         0         0         0
         0         0         0         0         0         0         0         0
         0         0         0         0         0         0         0         0
         0         0         0         0         0         0         0         0
         0         0         0         0         0         0         0         0
         0         0         0         0         0         0         0         0
         0         0         0         0         0         0         0         0
         0         0         0         0         0         0         0         0
         0         0         0         0         0         0         0         0
         0         0         0         0         0         0         0         0
         0         0         0         0         0         0         0         0
         0         0         0         0         0         0         0         0
         0         0         0         0         0         0         0         0
         0         0         0         0         0         0         0         0
         0         0         0         0         0         0         0         0
         0         0         0         0         0         0         0         0
         0         0         0         0         0         0         0         0
         0         0         0         0         0         0         0         0
         0         0         0         0         0         0         0         0
         0         0         0         0         0         0         0         0
         0         0         0         0         0         0         0         0
         0         0         0         0         0         0         0         0
         0         0         0         0         0         0         0         0
         0         0         0         0         0         0         0         0
         0         0         0         0         0         0         0         0
         0         0         0         0         0         0         0         0
         0         0         0         0         0         0         0         0
         0         0         0         0         0         0         0         0
         0         0         0         0         0         0         0         0
         0         0         0         0         0         0         0         0
         0         0         0         0         0         0         0         0
         0         0         0         0         0         0         0         0
         0         0         0         0         0         0         0         0
         0         0         0         0         0         0         0         0
         0         0         0         0         0         0         0         0
         0         0         0         0         0         0         0         0
         0         0         0         0         0         0         0         0
         0         0         0         0         0         0         0         0
         0         0         0         0         0         0         0         0
         0         0         0         0         0         0         0         0
         0         0         0         0         0         0         0         0
         0         0         0         0         0         0         0         0
         0         0         0         0         0         0         0         0
         0         0         0         0         0         0         0         0
         0         0         0         0         0         0         0         0
         0         0         0         0         0         0         0         0
         0         0         0         0         0         0         0         0
         0         0         0         0         0         0         0         0
         0         0         0         0         0         0         0         0
         0         0         0         0         0         0         0         0
         0         0         0         0         0         0         0         0
         0         0         0         0         0         0         0         0
         0         0         0         0         0         0         0         0
         0         0         0         0         0         0         0         0
         0         0         0         0         0         0         0         0
         0         0         0         0         0         0         0         0
         0         0         0         0         0         0         0         0
         0         0         0         0         0         0         0         0
         0         0         0         0         0         0         0         0
         0         0         0         0         0         0         0         0
         0         0         0         0         0         0         0         0
         0         0         0         0         0         0         0         0
         0         0         0         0         0         0         0         0
         0         0         0         0         0         0         0         0
         0         0         0         0         0         0         0         0
         0         0         0         0         0         0         0         0
         0         0         0         0         0         0         0         0
         0         0         0         0         0         0         0         0
         0         0         0         0         0         0         0         0
         0         0         0         0         0         0         0         0
         0         0         0         0         0         0         0         0
         0         0         0         0         0         0         0         0
         0         0         0         0         0         0         0         0
         0         0         0         0         0         0         0         0
         0         0         0         0         0         0         0         0
         0         0         0         0         0         0         0         0
         0         0         0         0         0         0         0         0
         0         0         0         0         0         0         0         0
         0         0         0         0         0         0         0         0
         0         0         0         0         0         0         0         0
         0         0         0         0         0         0         0         0
         0         0         0         0         0         0         0         0
         0         0         0         0         0         0         0         0
         0         0         0         0         0         0         0         0
         0         0         0         0         0         0         0         0
         0         0         0         0         0         0         0         0
         0         0         0         0         0         0         0         0
         0         0         0         0         0         0         0         0
         0         0         0         0         0         0         0         0
         0         0         0         0         0         0         0         0
         0         0         0         0         0         0         0         0
         0         0         0         0         0         0         0         0
         0         0         0         0         0         0         0         0
         0         0         0         0         0         0         0         0
         0         0         0         0         0         0         0         0
         0         0         0         0         0         0         0         0
         0         0         0         0         0         0         0         0
         0         0         0         0         0         0         0         0
         0         0         0         0         0         0         0         0
         0         0         0         0         0         0         0         0
         0         0         0         0         0         0         0         0
         0         0         0         0         0         0         0         0
         0         0         0         0         0         0         0         0
         0         0         0         0         0         0         0         0
         0         0         0         0         0         0         0         0
         0         0         0         0         0         0         0         0
         0         0         0         0         0         0         0         0
         0         0         0         0         0         0         0         0
         0         0         0         0         0         0         0         0
         0         0         0         0         0         0         0         0
         0         0         0         0         0         0         0         0
         0         0         0         0         0         0         0         0
         0         0         0         0         0         0         0         0
         0         0         0         0         0         0         0         0
         0         0         0         0         0         0         0         0
         0         0         0         0         0         0         0         0
         0         0         0         0         0         0         0         0
         0         0         0         0         0         0         0         0
         0         0         0         0         0         0         0         0
         0         0         0         0         0         0         0         0
         0         0         0         0         0         0         0         0
         0         0         0         0         0         0         0         0
         0         0         0         0         0         0         0         0
         0         0         0         0         0         0         0         0
         0         0         0         0         0         0         0         0
         0         0         0         0         0         0         0         0
         0         0         0         0         0         0         0         0
         0         0         0         0         0         0         0         0
         0         0         0         0         0         0         0         0

      6496         0 !NGRP NST2
         0         2         0         6         2         0         9         2         0
        20         1         0        28         1         0        37         1         0
        40         1         0        43         1         0        45         1         0
        47         1         0        50         1         0        52         1         0
        54         1         0        57         1         0        59         1         0
        61         1         0        64         1         0        66         1         0
        68         1         0        71         1         0        74         1         0
        77         1         0        80         1         0        84         1         0
        87         1         0        90         1         0        93         1         0
        96         1         0        99         1         0       102         1         0
       105         1         0       108         1         0       111         1         0
       114         1         0       117         1         0       120         1         0
       123         1         0       126         1         0       129         1         0
       133         2         0       149         2         0       160         1         0
       168         1         0       177         1         0       180         1         0
       183         1         0       185         1         0       187         1         0
       190         1         0       192         1         0       194         1         0
       197         1         0       199         1         0       201         1         0
       204         1         0       206         1         0       208         1         0
       211         1         0       214         2         0       217         1         0
       220         2         0       224         1         0       227         1         0
       230         1         0       233         1         0       236         1         0
       239         1         0       242         1         0       245         1         0
       248         1         0       251         1         0       254         1         0
       257         1         0       260         1         0       263         1         0
       266         1         0       269         1         0       273         2         0
       289         2         0       300         1         0       308         1         0
       317         1         0       320         1         0       323         1         0
       326         1         0       329         1         0       332         1         0
       335         1         0       337         1         0       339         1         0
       342         1         0       345         1         0       348         1         0
       351         1         0       354         1         0       357         1         0
       360         1         0       364         1         0       367         1         0
       370         1         0       373         1         0       376         1         0
       379         1         0       382         1         0       385         1         0
       388         1         0       391         1         0       394         1         0
       397         1         0       400         1         0       403         1         0
       407         1         0       411         1         0       414         1         0
       417         1         0       420         1         0       422         1         0
       424         1         0       427         1         0       430         1         0
       432         0         0       433         1         0       437         1         0
       440         1         0       443         1         0       445         0         0
       446         1         0       450         1         0       453         1         0
       456         1         0       458         1         0       462         1         0
       465         1         0       468         1         0       471         1         0
       473         1         0       477         1         0       481         2         0
       497         2         0       508         1         0       512         1         0
       516         1         0       518         1         0       520         1         0
       523         1         0       526         1         0       529         1         0
       532         1         0       535         1         0       538         1         0
       541         1         0       544         1         0       547         1         0
       550         1         0       553         1         0       556         1         0
       560         1         0       565         1         0       568         1         0
       571         1         0       574         1         0       577         1         0
       580         1         0       583         1         0       585         1         0
       587         1         0       590         1         0       593         1         0
       596         1         0       599         1         0       602         1         0
       605         1         0       608         1         0       612         2         0
       619         2         0       630         1         0       638         1         0
       647         1         0       650         1         0       653         1         0
       655         1         0       657         1         0       660         1         0
       662         1         0       664         1         0       667         1         0
       669         1         0       671         1         0       674         1         0
       676         1         0       678         1         0       681         1         0
       684         1         0       687         1         0       690         1         0
       694         1         0       697         1         0       700         1         0
       703         1         0       706         1         0       709         1         0
       712         1         0       715         1         0       718         1         0
       721         1         0       724         1         0       727         1         0
       730         1         0       733         1         0       736         1         0
       739         1         0       743         1         0       747         1         0
       750         1         0       753         1         0       756         1         0
       758         1         0       760         1         0       763         1         0
       766         1         0       768         0         0       769         1         0
       773         1         0       776         1         0       779         1         0
       781         0         0       782         1         0       786         1         0
       789         1         0       792         1         0       794         1         0
       798         1         0       801         1         0       804         1         0
       807         1         0       809         1         0       813         1         0
       817         2         0       833         2         0       844         1         0
       852         1         0       861         1         0       864         1         0
       867         1         0       869         1         0       871         1         0
       874         1         0       876         1         0       878         1         0
       881         1         0       883         1         0       885         1         0
       888         1         0       890         1         0       892         1         0
       895         1         0       898         2         0       901         1         0
       904         2         0       908         1         0       911         1         0
       914         1         0       917         1         0       920         1         0
       923         1         0       926         1         0       929         1         0
       932         1         0       935         1         0       938         1         0
       941         1         0       944         1         0       947         1         0
       950         1         0       953         1         0       957         1         0
       961         1         0       964         1         0       967         1         0
       970         1         0       972         1         0       974         1         0
       977         1         0       980         1         0       982         0         0
       983         1         0       987         1         0       990         1         0
       993         1         0       995         0         0       996         1         0
      1000         1         0      1003         1         0      1006         1         0
      1008         1         0      1012         1         0      1015         1         0
      1018         1         0      1021         1         0      1023         1         0
      1027         1         0      1031         1         0      1035         1         0
      1038         1         0      1041         1         0      1044         1         0
      1046         1         0      1048         1         0      1051         1         0
      1054         1         0      1056         0         0      1057         1         0
      1061         1         0      1064         1         0      1067         1         0
      1069         0         0      1070         1         0      1074         1         0
      1077         1         0      1080         1         0      1082         1         0
      1086         1         0      1089         1         0      1092         1         0
      1095         1         0      1097         1         0      1101         1         0
      1105         2         0      1112         2         0      1123         1         0
      1131         1         0      1140         1         0      1143         1         0
      1146         1         0      1149         1         0      1152         1         0
      1155         1         0      1158         1         0      1160         1         0
      1162         1         0      1165         1         0      1168         1         0
      1171         1         0      1174         1         0      1177         1         0
      1180         1         0      1183         1         0      1187         1         0
      1190         1         0      1193         1         0      1196         1         0
      1199         1         0      1202         1         0      1205         1         0
      1208         1         0      1211         1         0      1214         1         0
      1217         1         0      1220         1         0      1223         1         0
      1226         1         0      1229         1         0      1232         1         0
      1236         2         0      1252         2         0      1263         1         0
      1267         1         0      1271         1         0      1273         1         0
      1275         1         0      1278         1         0      1281         1         0
      1284         1         0      1287         1         0      1290         1         0
      1293         1         0      1296         1         0      1299         1         0
      1302         1         0      1305         1         0      1308         1         0
      1311         1         0      1315         1         0      1320         1         0
      1323         1         0      1326         1         0      1329         1         0
      1332         1         0      1335         1         0      1338         1         0
      1340         1         0      1342         1         0      1345         1         0
      1348         1         0      1351         1         0      1354         1         0
      1357         1         0      1360         1         0      1363         1         0
      1367         2         0      1383         2         0      1394         1         0
      1402         1         0      1411         1         0      1414         1         0
      1417         1         0      1420         1         0      1423         1         0
      1426         1         0      1429         1         0      1431         1         0
      1433         1         0      1436         1         0      1439         1         0
      1442         1         0      1445         1         0      1448         1         0
      1451         1         0      1454         1         0      1458         1         0
      1461         1         0      1464         1         0      1467         1         0
      1470         1         0      1473         1         0      1476         1         0
      1479         1         0      1482         1         0      1485         1         0
      1488         1         0      1491         1         0      1494         1         0
      1497         1         0      1501         1         0      1505         1         0
      1508         1         0      1511         1         0      1514         1         0
      1516         1         0      1518         1         0      1521         1         0
      1524         1         0      1526         0         0      1527         1         0
      1531         1         0      1534         1         0      1537         1         0
      1539         0         0      1540         1         0      1544         1         0
      1547         1         0      1550         1         0      1552         1         0
      1556         1         0      1559         1         0      1562         1         0
      1565         1         0      1567         1         0      1571         1         0
      1575         1         0      1579         1         0      1582         1         0
      1585         1         0      1588         1         0      1590         1         0
      1592         1         0      1595         1         0      1598         1         0
      1600         0         0      1601         1         0      1605         1         0
      1608         1         0      1611         1         0      1613         0         0
      1614         1         0      1618         1         0      1621         1         0
      1624         1         0      1626         1         0      1630         1         0
      1633         1         0      1636         1         0      1639         1         0
      1641         1         0      1645         1         0      1649         1         0
      1653         1         0      1656         1         0      1659         1         0
      1662         1         0      1664         1         0      1666         1         0
      1669         1         0      1672         1         0      1674         0         0
      1675         1         0      1679         1         0      1682         1         0
      1685         1         0      1687         0         0      1688         1         0
      1692         1         0      1695         1         0      1698         1         0
      1700         1         0      1704         1         0      1707         1         0
      1710         1         0      1713         1         0      1715         1         0
      1719         1         0      1723         2         0      1729         2         0
      1732         2         0      1743         1         0      1751         1         0
      1760         1         0      1763         1         0      1766         1         0
      1768         1         0      1770         1         0      1773         1         0
      1775         1         0      1777         1         0      1780         1         0
      1782         1         0      1784         1         0      1787         1         0
      1789         1         0      1791         1         0      1794         1         0
      1797         1         0      1800         1         0      1803         1         0
      1807         1         0      1810         1         0      1813         1         0
      1816         1         0      1819         1         0      1822         1         0
      1825         1         0      1828         1         0      1831         1         0
      1834         1         0      1837         1         0      1840         1         0
      1843         1         0      1846         1         0      1849         1         0
      1852         1         0      1856         2         0      1872         2         0
      1883         1         0      1887         1         0      1891         1         0
      1893         1         0      1895         1         0      1898         1         0
      1901         1         0      1904         1         0      1907         1         0
      1910         1         0      1913         1         0      1916         1         0
      1919         1         0      1922         1         0      1925         1         0
      1928         1         0      1931         1         0      1935         1         0
      1940         1         0      1943         1         0      1946         1         0
      1949         1         0      1952         1         0      1955         1         0
      1958         1         0      1960         1         0      1962         1         0
      1965         1         0      1968         1         0      1971         1         0
      1974         1         0      1977         1         0      1980         1         0
      1983         1         0      1987         1         0      1991         1         0
      1995         1         0      1999         1         0      2003         1         0
      2007         2         0      2017         1         0      2025         1         0
      2034         1         0      2037         1         0      2040         1         0
      2042         1         0      2044         1         0      2047         1         0
      2049         1         0      2051         1         0      2054         1         0
      2056         1         0      2058         1         0      2061         1         0
      2063         1         0      2065         1         0      2068         1         0
      2071         1         0      2074         1         0      2077         1         0
      2081         1         0      2084         1         0      2087         1         0
      2090         1         0      2093         1         0      2096         1         0
      2099         1         0      2102         1         0      2105         1         0
      2108         1         0      2111         1         0      2114         1         0
      2117         1         0      2120         1         0      2123         1         0
      2126         1         0      2130         2         0      2137         2         0
      2148         1         0      2156         1         0      2165         1         0
      2168         1         0      2171         1         0      2173         1         0
      2175         1         0      2178         1         0      2180         1         0
      2182         1         0      2185         1         0      2187         1         0
      2189         1         0      2192         1         0      2194         1         0
      2196         1         0      2199         1         0      2202         1         0
      2205         1         0      2208         1         0      2212         1         0
      2215         1         0      2218         1         0      2221         1         0
      2224         1         0      2227         1         0      2230         1         0
      2233         1         0      2236         1         0      2239         1         0
      2242         1         0      2245         1         0      2248         1         0
      2251         1         0      2254         1         0      2257         1         0
      2261         1         0      2265         1         0      2268         1         0
      2271         1         0      2274         1         0      2276         1         0
      2278         1         0      2281         1         0      2284         1         0
      2286         0         0      2287         1         0      2291         1         0
      2294         1         0      2297         1         0      2299         0         0
      2300         1         0      2304         1         0      2307         1         0
      2310         1         0      2312         1         0      2316         1         0
      2319         1         0      2322         1         0      2325         1         0
      2327         1         0      2331         1         0      2335         2         0
      2342         2         0      2353         1         0      2361         1         0
      2370         1         0      2373         1         0      2376         1         0
      2378         1         0      2380         1         0      2383         1         0
      2385         1         0      2387         1         0      2390         1         0
      2392         1         0      2394         1         0      2397         1         0
      2399         1         0      2401         1         0      2404         1         0
      2407         1         0      2410         1         0      2413         1         0
      2417         1         0      2420         1         0      2423         1         0
      2426         1         0      2429         1         0      2432         1         0
      2435         1         0      2438         1         0      2441         1         0
      2444         1         0      2447         1         0      2450         1         0
      2453         1         0      2456         1         0      2459         1         0
      2462         1         0      2466         2         0      2482         2         0
      2493         1         0      2501         1         0      2510         1         0
      2513         1         0      2516         1         0      2519         1         0
      2522         1         0      2525         1         0      2528         1         0
      2530         1         0      2532         1         0      2535         1         0
      2537         1         0      2539         1         0      2542         1         0
      2545         1         0      2548         1         0      2551         1         0
      2555         1         0      2558         1         0      2561         1         0
      2564         1         0      2567         1         0      2570         1         0
      2573         1         0      2576         1         0      2579         1         0
      2582         1         0      2585         1         0      2588         1         0
      2591         1         0      2594         1         0      2597         1         0
      2600         1         0      2604         2         0      2620         2         0
      2631         1         0      2635         1         0      2639         1         0
      2641         1         0      2643         1         0      2646         1         0
      2649         1         0      2652         1         0      2655         1         0
      2658         1         0      2661         1         0      2664         1         0
      2667         1         0      2670         1         0      2673         1         0
      2676         1         0      2679         1         0      2683         1         0
      2688         1         0      2691         1         0      2694         1         0
      2697         1         0      2700         1         0      2703         1         0
      2706         1         0      2708         1         0      2710         1         0
      2713         1         0      2716         1         0      2719         1         0
      2722         1         0      2725         1         0      2728         1         0
      2731         1         0      2735         1         0      2739         1         0
      2742         1         0      2745         1         0      2748         1         0
      2750         1         0      2752         1         0      2755         1         0
      2758         1         0      2760         0         0      2761         1         0
      2765         1         0      2768         1         0      2771         1         0
      2773         0         0      2774         1         0      2778         1         0
      2781         1         0      2784         1         0      2786         1         0
      2790         1         0      2793         1         0      2796         1         0
      2799         1         0      2801         1         0      2805         1         0
      2809         2         0      2816         2         0      2827         1         0
      2835         1         0      2844         1         0      2847         1         0
      2850         1         0      2852         1         0      2854         1         0
      2857         1         0      2859         1         0      2861         1         0
      2864         1         0      2866         1         0      2868         1         0
      2871         1         0      2873         1         0      2875         1         0
      2878         1         0      2881         1         0      2884         1         0
      2887         1         0      2891         1         0      2894         1         0
      2897         1         0      2900         1         0      2903         1         0
      2906         1         0      2909         1         0      2912         1         0
      2915         1         0      2918         1         0      2921         1         0
      2924         1         0      2927         1         0      2930         1         0
      2933         1         0      2936         1         0      2940         2         0
      2947         2         0      2958         1         0      2966         1         0
      2975         1         0      2978         1         0      2981         1         0
      2984         1         0      2987         1         0      2990         1         0
      2993         1         0      2995         1         0      2997         1         0
      3000         1         0      3003         1         0      3006         1         0
      3009         1         0      3012         1         0      3015         1         0
      3018         1         0      3022         1         0      3025         1         0
      3028         1         0      3031         1         0      3034         1         0
      3037         1         0      3040         1         0      3043         1         0
      3046         1         0      3049         1         0      3052         1         0
      3055         1         0      3058         1         0      3061         1         0
      3064         1         0      3067         1         0      3071         2         0
      3087         2         0      3098         1         0      3106         1         0
      3115         1         0      3118         1         0      3121         1         0
      3124         1         0      3127         1         0      3130         1         0
      3133         1         0      3135         1         0      3137         1         0
      3140         1         0      3142         1         0      3144         1         0
      3147         1         0      3150         1         0      3153         1         0
      3156         1         0      3160         1         0      3163         1         0
      3166         1         0      3169         1         0      3172         1         0
      3175         1         0      3178         1         0      3181         1         0
      3184         1         0      3187         1         0      3190         1         0
      3193         1         0      3196         1         0      3199         1         0
      3202         1         0      3205         1         0      3209         2         0
      3225         2         0      3236         1         0      3240         1         0
      3244         1         0      3246         1         0      3248         1         0
      3251         1         0      3254         1         0      3257         1         0
      3260         1         0      3263         1         0      3266         1         0
      3269         1         0      3272         1         0      3275         1         0
      3278         1         0      3281         1         0      3284         1         0
      3288         1         0      3293         1         0      3296         1         0
      3299         1         0      3302         1         0      3305         1         0
      3308         1         0      3311         1         0      3313         1         0
      3315         1         0      3318         1         0      3321         1         0
      3324         1         0      3327         1         0      3330         1         0
      3333         1         0      3336         1         0      3340         2         0
      3356         2         0      3367         1         0      3371         1         0
      3375         1         0      3377         1         0      3379         1         0
      3382         1         0      3385         1         0      3388         1         0
      3391         1         0      3394         1         0      3397         1         0
      3400         1         0      3403         1         0      3406         1         0
      3409         1         0      3412         1         0      3415         1         0
      3419         1         0      3424         1         0      3427         1         0
      3430         1         0      3433         1         0      3436         1         0
      3439         1         0      3442         1         0      3444         1         0
      3446         1         0      3449         1         0      3452         1         0
      3455         1         0      3458         1         0      3461         1         0
      3464         1         0      3467         1         0      3471         2         0
      3477         2         0      3480         2         0      3491         1         0
      3499         1         0      3508         1         0      3511         1         0
      3514         1         0      3516         1         0      3518         1         0
      3521         1         0      3523         1         0      3525         1         0
      3528         1         0      3530         1         0      3532         1         0
      3535         1         0      3537         1         0      3539         1         0
      3542         1         0      3545         1         0      3548         1         0
      3551         1         0      3555         1         0      3558         1         0
      3561         1         0      3564         1         0      3567         1         0
      3570         1         0      3573         1         0      3576         1         0
      3579         1         0      3582         1         0      3585         1         0
      3588         1         0      3591         1         0      3594         1         0
      3597         1         0      3600         1         0      3604         2         0
      3620         2         0      3631         1         0      3639         1         0
      3648         1         0      3651         1         0      3654         1         0
      3657         1         0      3660         1         0      3663         1         0
      3666         1         0      3668         1         0      3670         1         0
      3673         1         0      3675         1         0      3677         1         0
      3680         1         0      3683         1         0      3686         1         0
      3689         1         0      3693         1         0      3696         1         0
      3699         1         0      3702         1         0      3705         1         0
      3708         1         0      3711         1         0      3714         1         0
      3717         1         0      3720         1         0      3723         1         0
      3726         1         0      3729         1         0      3732         1         0
      3735         1         0      3738         1         0      3742         2         0
      3749         2         0      3760         1         0      3768         1         0
      3777         1         0      3780         1         0      3783         1         0
      3786         1         0      3789         1         0      3792         1         0
      3795         1         0      3797         1         0      3799         1         0
      3802         1         0      3805         1         0      3808         1         0
      3811         1         0      3814         1         0      3817         1         0
      3820         1         0      3824         1         0      3827         1         0
      3830         1         0      3833         1         0      3836         1         0
      3839         1         0      3842         1         0      3845         1         0
      3848         1         0      3851         1         0      3854         1         0
      3857         1         0      3860         1         0      3863         1         0
      3866         1         0      3869         1         0      3873         1         0
      3877         1         0      3881         1         0      3885         1         0
      3889         1         0      3893         2         0      3903         1         0
      3911         1         0      3920         1         0      3923         1         0
      3926         1         0      3928         1         0      3930         1         0
      3933         1         0      3935         1         0      3937         1         0
      3940         1         0      3942         1         0      3944         1         0
      3947         1         0      3949         1         0      3951         1         0
      3954         1         0      3957         1         0      3960         1         0
      3963         1         0      3967         1         0      3970         1         0
      3973         1         0      3976         1         0      3979         1         0
      3982         1         0      3985         1         0      3988         1         0
      3991         1         0      3994         1         0      3997         1         0
      4000         1         0      4003         1         0      4006         1         0
      4009         1         0      4012         1         0      4016         1         0
      4020         1         0      4023         1         0      4026         1         0
      4029         1         0      4031         1         0      4033         1         0
      4036         1         0      4039         1         0      4041         0         0
      4042         1         0      4046         1         0      4049         1         0
      4052         1         0      4054         0         0      4055         1         0
      4059         1         0      4062         1         0      4065         1         0
      4067         1         0      4071         1         0      4074         1         0
      4077         1         0      4080         1         0      4082         1         0
      4086         1         0      4090         2         0      4106         2         0
      4117         1         0      4121         1         0      4125         1         0
      4127         1         0      4129         1         0      4132         1         0
      4135         1         0      4138         1         0      4141         1         0
      4144         1         0      4147         1         0      4150         1         0
      4153         1         0      4156         1         0      4159         1         0
      4162         1         0      4165         1         0      4169         1         0
      4174         1         0      4177         1         0      4180         1         0
      4183         1         0      4186         1         0      4189         1         0
      4192         1         0      4194         1         0      4196         1         0
      4199         1         0      4202         1         0      4205         1         0
      4208         1         0      4211         1         0      4214         1         0
      4217         1         0      4221         1         0      4225         1         0
      4228         1         0      4231         1         0      4234         1         0
      4236         1         0      4238         1         0      4241         1         0
      4244         1         0      4246         0         0      4247         1         0
      4251         1         0      4254         1         0      4257         1         0
      4259         0         0      4260         1         0      4264         1         0
      4267         1         0      4270         1         0      4272         1         0
      4276         1         0      4279         1         0      4282         1         0
      4285         1         0      4287         1         0      4291         1         0
      4295         2         0      4302         2         0      4313         1         0
      4321         1         0      4330         1         0      4333         1         0
      4336         1         0      4338         1         0      4340         1         0
      4343         1         0      4345         1         0      4347         1         0
      4350         1         0      4352         1         0      4354         1         0
      4357         1         0      4359         1         0      4361         1         0
      4364         1         0      4367         1         0      4370         1         0
      4373         1         0      4377         1         0      4380         1         0
      4383         1         0      4386         1         0      4389         1         0
      4392         1         0      4395         1         0      4398         1         0
      4401         1         0      4404         1         0      4407         1         0
      4410         1         0      4413         1         0      4416         1         0
      4419         1         0      4422         1         0      4426         1         0
      4430         1         0      4433         1         0      4436         1         0
      4439         1         0      4441         1         0      4443         1         0
      4446         1         0      4449         1         0      4451         0         0
      4452         1         0      4456         1         0      4459         1         0
      4462         1         0      4464         0         0      4465         1         0
      4469         1         0      4472         1         0      4475         1         0
      4477         1         0      4481         1         0      4484         1         0
      4487         1         0      4490         1         0      4492         1         0
      4496         1         0      4500         1         0      4504         1         0
      4507         1         0      4510         1         0      4513         1         0
      4515         1         0      4517         1         0      4520         1         0
      4523         1         0      4525         0         0      4526         1         0
      4530         1         0      4533         1         0      4536         1         0
      4538         0         0      4539         1         0      4543         1         0
      4546         1         0      4549         1         0      4551         1         0
      4555         1         0      4558         1         0      4561         1         0
      4564         1         0      4566         1         0      4570         1         0
      4574         2         0      4581         2         0      4592         1         0
      4600         1         0      4609         1         0      4612         1         0
      4615         1         0      4618         1         0      4621         1         0
      4624         1         0      4627         1         0      4629         1         0
      4631         1         0      4634         1         0      4637         1         0
      4640         1         0      4643         1         0      4646         1         0
      4649         1         0      4652         1         0      4656         1         0
      4659         1         0      4662         1         0      4665         1         0
      4668         1         0      4671         1         0      4674         1         0
      4677         1         0      4680         1         0      4683         1         0
      4686         1         0      4689         1         0      4692         1         0
      4695         1         0      4698         1         0      4701         1         0
      4705         2         0      4721         2         0      4732         1         0
      4740         1         0      4749         1         0      4752         1         0
      4755         1         0      4758         1         0      4761         1         0
      4764         1         0      4767         1         0      4769         1         0
      4771         1         0      4774         1         0      4776         1         0
      4778         1         0      4781         1         0      4784         1         0
      4787         1         0      4790         1         0      4794         1         0
      4797         1         0      4800         1         0      4803         1         0
      4806         1         0      4809         1         0      4812         1         0
      4815         1         0      4818         1         0      4821         1         0
      4824         1         0      4827         1         0      4830         1         0
      4833         1         0      4836         1         0      4839         1         0
      4843         2         0      4850         2         0      4861         1         0
      4869         1         0      4878         1         0      4881         1         0
      4884         1         0      4887         1         0      4890         1         0
      4893         1         0      4896         1         0      4898         1         0
      4900         1         0      4903         1         0      4906         1         0
      4909         1         0      4912         1         0      4915         1         0
      4918         1         0      4921         1         0      4925         1         0
      4928         1         0      4931         1         0      4934         1         0
      4937         1         0      4940         1         0      4943         1         0
      4946         1         0      4949         1         0      4952         1         0
      4955         1         0      4958         1         0      4961         1         0
      4964         1         0      4967         1         0      4970         1         0
      4974         2         0      4990         2         0      5001         1         0
      5009         1         0      5018         1         0      5021         1         0
      5024         1         0      5027         1         0      5030         1         0
      5033         1         0      5036         1         0      5038         1         0
      5040         1         0      5043         1         0      5046         1         0
      5049         1         0      5052         1         0      5055         1         0
      5058         1         0      5061         1         0      5065         1         0
      5068         1         0      5071         1         0      5074         1         0
      5077         1         0      5080         1         0      5083         1         0
      5086         1         0      5089         1         0      5092         1         0
      5095         1         0      5098         1         0      5101         1         0
      5104         1         0      5108         2         0      5124         2         0
      5135         1         0      5139         1         0      5143         1         0
      5145         1         0      5147         1         0      5150         1         0
      5153         1         0      5156         1         0      5159         1         0
      5162         1         0      5165         1         0      5168         1         0
      5171         1         0      5174         1         0      5177         1         0
      5180         1         0      5183         1         0      5187         1         0
      5192         1         0      5195         1         0      5198         1         0
      5201         1         0      5204         1         0      5207         1         0
      5210         1         0      5212         1         0      5214         1         0
      5217         1         0      5220         1         0      5223         1         0
      5226         1         0      5229         1         0      5232         1         0
      5235         1         0      5239         2         0      5255         2         0
      5266         1         0      5270         1         0      5274         1         0
      5276         1         0      5278         1         0      5281         1         0
      5284         1         0      5287         1         0      5290         1         0
      5293         1         0      5296         1         0      5299         1         0
      5302         1         0      5305         1         0      5308         1         0
      5311         1         0      5314         1         0      5318         1         0
      5323         1         0      5326         1         0      5329         1         0
      5332         1         0      5335         1         0      5338         1         0
      5341         1         0      5343         1         0      5345         1         0
      5348         1         0      5351         1         0      5354         1         0
      5357         1         0      5360         1         0      5363         1         0
      5366         1         0      5370         1         0      5374         1         0
      5377         1         0      5380         1         0      5383         1         0
      5385         1         0      5387         1         0      5390         1         0
      5393         1         0      5395         0         0      5396         1         0
      5400         1         0      5403         1         0      5406         1         0
      5408         0         0      5409         1         0      5413         1         0
      5416         1         0      5419         1         0      5421         1         0
      5425         1         0      5428         1         0      5431         1         0
      5434         1         0      5436         1         0      5440         1         0
      5444         1         0      5448         1         0      5451         1         0
      5454         1         0      5457         1         0      5459         1         0
      5461         1         0      5464         1         0      5467         1         0
      5469         0         0      5470         1         0      5474         1         0
      5477         1         0      5480         1         0      5482         0         0
      5483         1         0      5487         1         0      5490         1         0
      5493         1         0      5495         1         0      5499         1         0
      5502         1         0      5505         1         0      5508         1         0
      5510         1         0      5514         1         0      5518         1         0
      5522         1         0      5525         1         0      5528         1         0
      5531         1         0      5533         1         0      5535         1         0
      5538         1         0      5541         1         0      5543         0         0
      5544         1         0      5548         1         0      5551         1         0
      5554         1         0      5556         0         0      5557         1         0
      5561         1         0      5564         1         0      5567         1         0
      5569         1         0      5573         1         0      5576         1         0
      5579         1         0      5582         1         0      5584         1         0
      5588         1         0      5592         1         0      5596         1         0
      5599         1         0      5602         1         0      5605         1         0
      5607         1         0      5609         1         0      5612         1         0
      5615         1         0      5617         0         0      5618         1         0
      5622         1         0      5625         1         0      5628         1         0
      5630         0         0      5631         1         0      5635         1         0
      5638         1         0      5641         1         0      5643         1         0
      5647         1         0      5650         1         0      5653         1         0
      5656         1         0      5658         1         0      5662         1         0
      5666         2         0      5673         2         0      5684         1         0
      5692         1         0      5701         1         0      5704         1         0
      5707         1         0      5709         1         0      5711         1         0
      5714         1         0      5716         1         0      5718         1         0
      5721         1         0      5723         1         0      5725         1         0
      5728         1         0      5730         1         0      5732         1         0
      5735         1         0      5738         1         0      5741         1         0
      5744         1         0      5748         1         0      5751         1         0
      5754         1         0      5757         1         0      5760         1         0
      5763         1         0      5766         1         0      5769         1         0
      5772         1         0      5775         1         0      5778         1         0
      5781         1         0      5784         1         0      5787         1         0
      5790         1         0      5793         1         0      5797         1         0
      5801         1         0      5804         1         0      5807         1         0
      5810         1         0      5812         1         0      5814         1         0
      5817         1         0      5820         1         0      5822         0         0
      5823         1         0      5827         1         0      5830         1         0
      5833         1         0      5835         0         0      5836         1         0
      5840         1         0      5843         1         0      5846         1         0
      5848         1         0      5852         1         0      5855         1         0
      5858         1         0      5861         1         0      5863         1         0
      5867         1         0      5871         2         0      5877         2         0
      5880         2         0      5891         1         0      5899         1         0
      5908         1         0      5911         1         0      5914         1         0
      5916         1         0      5918         1         0      5921         1         0
      5923         1         0      5925         1         0      5928         1         0
      5930         1         0      5932         1         0      5935         1         0
      5937         1         0      5939         1         0      5942         1         0
      5945         1         0      5948         1         0      5951         1         0
      5955         1         0      5958         1         0      5961         1         0
      5964         1         0      5967         1         0      5970         1         0
      5973         1         0      5976         1         0      5979         1         0
      5982         1         0      5985         1         0      5988         1         0
      5991         1         0      5994         1         0      5997         1         0
      6000         1         0      6004         1         0      6008         1         0
      6011         1         0      6014         1         0      6017         1         0
      6019         1         0      6021         1         0      6024         1         0
      6027         1         0      6029         0         0      6030         1         0
      6034         1         0      6037         1         0      6040         1         0
      6042         0         0      6043         1         0      6047         1         0
      6050         1         0      6053         1         0      6055         1         0
      6059         1         0      6062         1         0      6065         1         0
      6068         1         0      6070         1         0      6074         1         0
      6078         1         0      6082         1         0      6085         1         0
      6088         1         0      6091         1         0      6093         1         0
      6095         1         0      6098         1         0      6101         1         0
      6103         0         0      6104         1         0      6108         1         0
      6111         1         0      6114         1         0      6116         0         0
      6117         1         0      6121         1         0      6124         1         0
      6127         1         0      6129         1         0      6133         1         0
      6136         1         0      6139         1         0      6142         1         0
      6144         1         0      6148         1         0      6152         2         0
      6159         2         0      6170         1         0      6178         1         0
      6187         1         0      6190         1         0      6193         1         0
      6195         1         0      6197         1         0      6200         1         0
      6202         1         0      6204         1         0      6207         1         0
      6209         1         0      6211         1         0      6214         1         0
      6216         1         0      6218         1         0      6221         1         0
      6224         1         0      6227         1         0      6230         1         0
      6234         1         0      6237         1         0      6240         1         0
      6243         1         0      6246         1         0      6249         1         0
      6252         1         0      6255         1         0      6258         1         0
      6261         1         0      6264         1         0      6267         1         0
      6270         1         0      6273         1         0      6276         1         0
      6279         1         0      6283         2         0      6290         2         0
      6301         1         0      6309         1         0      6318         1         0
      6321         1         0      6324         1         0      6326         1         0
      6328         1         0      6331         1         0      6333         1         0
      6335         1         0      6338         1         0      6340         1         0
      6342         1         0      6345         1         0      6347         1         0
      6349         1         0      6352         1         0      6355         1         0
      6358         1         0      6361         1         0      6365         1         0
      6368         1         0      6371         1         0      6374         1         0
      6377         1         0      6380         1         0      6383         1         0
      6386         1         0      6389         1         0      6392         1         0
      6395         1         0      6398         1         0      6401         1         0
      6404         1         0      6407         1         0      6410         1         0
      6414         2         0      6430         2         0      6441         1         0
      6445         1         0      6449         1         0      6451         1         0
      6453         1         0      6456         1         0      6459         1         0
      6462         1         0      6465         1         0      6468         1         0
      6471         1         0      6474         1         0      6477         1         0
      6480         1         0      6483         1         0      6486         1         0
      6489         1         0      6493         1         0      6498         1         0
      6501         1         0      6504         1         0      6507         1         0
      6510         1         0      6513         1         0      6516         1         0
      6518         1         0      6520         1         0      6523         1         0
      6526         1         0      6529         1         0      6532         1         0
      6535         1         0      6538         1         0      6541         1         0
      6545         2         0      6561         2         0      6572         1         0
      6580         1         0      6589         1         0      6592         1         0
      6595         1         0      6598         1         0      6601         1         0
      6604         1         0      6607         1         0      6609         1         0
      6611         1         0      6614         1         0      6616         1         0
      6618         1         0      6621         1         0      6624         1         0
      6627         1         0      6630         1         0      6634         1         0
      6637         1         0      6640         1         0      6643         1         0
      6646         1         0      6649         1         0      6652         1         0
      6655         1         0      6658         1         0      6661         1         0
      6664         1         0      6667         1         0      6670         1         0
      6673         1         0      6676         1         0      6679         1         0
      6683         2         0      6699         2         0      6710         1         0
      6718         1         0      6727         1         0      6730         1         0
      6733         1         0      6735         1         0      6737         1         0
      6740         1         0      6742         1         0      6744         1         0
      6747         1         0      6749         1         0      6751         1         0
      6754         1         0      6756         1         0      6758         1         0
      6761         1         0      6764         2         0      6767         1         0
      6770         2         0      6774         1         0      6777         1         0
      6780         1         0      6783         1         0      6786         1         0
      6789         1         0      6792         1         0      6795         1         0
      6798         1         0      6801         1         0      6804         1         0
      6807         1         0      6810         1         0      6813         1         0
      6816         1         0      6819         1         0      6823         2         0
      6830         2         0      6841         1         0      6849         1         0
      6858         1         0      6861         1         0      6864         1         0
      6866         1         0      6868         1         0      6871         1         0
      6873         1         0      6875         1         0      6878         1         0
      6880         1         0      6882         1         0      6885         1         0
      6887         1         0      6889         1         0      6892         1         0
      6895         1         0      6898         1         0      6901         1         0
      6905         1         0      6908         1         0      6911         1         0
      6914         1         0      6917         1         0      6920         1         0
      6923         1         0      6926         1         0      6929         1         0
      6932         1         0      6935         1         0      6938         1         0
      6941         1         0      6944         1         0      6947         1         0
      6950         1         0      6954         2         0      6961         2         0
      6972         1         0      6980         1         0      6989         1         0
      6992         1         0      6995         1         0      6997         1         0
      6999         1         0      7002         1         0      7004         1         0
      7006         1         0      7009         1         0      7011         1         0
      7013         1         0      7016         1         0      7018         1         0
      7020         1         0      7023         1         0      7026         1         0
      7029         1         0      7032         1         0      7036         1         0
      7039         1         0      7042         1         0      7045         1         0
      7048         1         0      7051         1         0      7054         1         0
      7057         1         0      7060         1         0      7063         1         0
      7066         1         0      7069         1         0      7072         1         0
      7075         1         0      7078         1         0      7081         1         0
      7085         2         0      7101         2         0      7112         1         0
      7116         1         0      7120         1         0      7122         1         0
      7124         1         0      7127         1         0      7130         1         0
      7133         1         0      7136         1         0      7139         1         0
      7142         1         0      7145         1         0      7148         1         0
      7151         1         0      7154         1         0      7157         1         0
      7160         1         0      7164         1         0      7169         1         0
      7172         1         0      7175         1         0      7178         1         0
      7181         1         0      7184         1         0      7187         1         0
      7189         1         0      7191         1         0      7194         1         0
      7197         1         0      7200         1         0      7203         1         0
      7206         1         0      7209         1         0      7212         1         0
      7216         1         0      7220         1         0      7223         1         0
      7226         1         0      7229         1         0      7231         1         0
      7233         1         0      7236         1         0      7239         1         0
      7241         0         0      7242         1         0      7246         1         0
      7249         1         0      7252         1         0      7254         0         0
      7255         1         0      7259         1         0      7262         1         0
      7265         1         0      7267         1         0      7271         1         0
      7274         1         0      7277         1         0      7280         1         0
      7282         1         0      7286         1         0      7290         1         0
      7294         1         0      7297         1         0      7300         1         0
      7303         1         0      7305         1         0      7307         1         0
      7310         1         0      7313         1         0      7315         0         0
      7316         1         0      7320         1         0      7323         1         0
      7326         1         0      7328         0         0      7329         1         0
      7333         1         0      7336         1         0      7339         1         0
      7341         1         0      7345         1         0      7348         1         0
      7351         1         0      7354         1         0      7356         1         0
      7360         1         0      7364         2         0      7370         2         0
      7373         2         0      7384         1         0      7392         1         0
      7401         1         0      7404         1         0      7407         1         0
      7409         1         0      7411         1         0      7414         1         0
      7416         1         0      7418         1         0      7421         1         0
      7423         1         0      7425         1         0      7428         1         0
      7430         1         0      7432         1         0      7435         1         0
      7438         1         0      7441         1         0      7444         1         0
      7448         1         0      7451         1         0      7454         1         0
      7457         1         0      7460         1         0      7463         1         0
      7466         1         0      7469         1         0      7472         1         0
      7475         1         0      7478         1         0      7481         1         0
      7484         1         0      7487         1         0      7490         1         0
      7493         1         0      7497         1         0      7501         1         0
      7504         1         0      7507         1         0      7510         1         0
      7512         1         0      7514         1         0      7517         1         0
      7520         1         0      7522         0         0      7523         1         0
      7527         1         0      7530         1         0      7533         1         0
      7535         0         0      7536         1         0      7540         1         0
      7543         1         0      7546         1         0      7548         1         0
      7552         1         0      7555         1         0      7558         1         0
      7561         1         0      7563         1         0      7567         1         0
      7571         2         0      7587         2         0      7598         1         0
      7602         1         0      7606         1         0      7608         1         0
      7610         1         0      7613         1         0      7616         1         0
      7619         1         0      7622         1         0      7625         1         0
      7628         1         0      7631         1         0      7634         1         0
      7637         1         0      7640         1         0      7643         1         0
      7646         1         0      7650         1         0      7655         1         0
      7658         1         0      7661         1         0      7664         1         0
      7667         1         0      7670         1         0      7673         1         0
      7675         1         0      7677         1         0      7680         1         0
      7683         1         0      7686         1         0      7689         1         0
      7692         1         0      7695         1         0      7698         1         0
      7702         2         0      7709         2         0      7720         1         0
      7728         1         0      7737         1         0      7740         1         0
      7743         1         0      7745         1         0      7747         1         0
      7750         1         0      7752         1         0      7754         1         0
      7757         1         0      7759         1         0      7761         1         0
      7764         1         0      7766         1         0      7768         1         0
      7771         1         0      7774         1         0      7777         1         0
      7780         1         0      7784         1         0      7787         1         0
      7790         1         0      7793         1         0      7796         1         0
      7799         1         0      7802         1         0      7805         1         0
      7808         1         0      7811         1         0      7814         1         0
      7817         1         0      7820         1         0      7823         1         0
      7826         1         0      7829         1         0      7833         1         0
      7837         1         0      7840         1         0      7843         1         0
      7846         1         0      7848         1         0      7850         1         0
      7853         1         0      7856         1         0      7858         0         0
      7859         1         0      7863         1         0      7866         1         0
      7869         1         0      7871         0         0      7872         1         0
      7876         1         0      7879         1         0      7882         1         0
      7884         1         0      7888         1         0      7891         1         0
      7894         1         0      7897         1         0      7899         1         0
      7903         1         0      7907         2         0      7923         2         0
      7934         1         0      7942         1         0      7951         1         0
      7954         1         0      7957         1         0      7959         1         0
      7961         1         0      7964         1         0      7966         1         0
      7968         1         0      7971         1         0      7973         1         0
      7975         1         0      7978         1         0      7980         1         0
      7982         1         0      7985         1         0      7988         2         0
      7991         1         0      7994         2         0      7998         1         0
      8001         1         0      8004         1         0      8007         1         0
      8010         1         0      8013         1         0      8016         1         0
      8019         1         0      8022         1         0      8025         1         0
      8028         1         0      8031         1         0      8034         1         0
      8037         1         0      8040         1         0      8043         1         0
      8047         2         0      8063         2         0      8074         1         0
      8078         1         0      8082         1         0      8084         1         0
      8086         1         0      8089         1         0      8092         1         0
      8095         1         0      8098         1         0      8101         1         0
      8104         1         0      8107         1         0      8110         1         0
      8113         1         0      8116         1         0      8119         1         0
      8122         1         0      8126         1         0      8131         1         0
      8134         1         0      8137         1         0      8140         1         0
      8143         1         0      8146         1         0      8149         1         0
      8151         1         0      8153         1         0      8156         1         0
      8159         1         0      8162         1         0      8165         1         0
      8168         1         0      8171         1         0      8174         1         0
      8178         2         0      8194         2         0      8205         1         0
      8209         1         0      8213         1         0      8215         1         0
      8217         1         0      8220         1         0      8223         1         0
      8226         1         0      8229         1         0      8232         1         0
      8235         1         0      8238         1         0      8241         1         0
      8244         1         0      8247         1         0      8250         1         0
      8253         1         0      8257         1         0      8262         1         0
      8265         1         0      8268         1         0      8271         1         0
      8274         1         0      8277         1         0      8280         1         0
      8282         1         0      8284         1         0      8287         1         0
      8290         1         0      8293         1         0      8296         1         0
      8299         1         0      8302         1         0      8305         1         0
      8309         2         0      8325         2         0      8336         1         0
      8340         1         0      8344         1         0      8346         1         0
      8348         1         0      8351         1         0      8354         1         0
      8357         1         0      8360         1         0      8363         1         0
      8366         1         0      8369         1         0      8372         1         0
      8375         1         0      8378         1         0      8381         1         0
      8384         1         0      8388         1         0      8393         1         0
      8396         1         0      8399         1         0      8402         1         0
      8405         1         0      8408         1         0      8411         1         0
      8413         1         0      8415         1         0      8418         1         0
      8421         1         0      8424         1         0      8427         1         0
      8430         1         0      8433         1         0      8436         1         0
      8440         2         0      8456         2         0      8467         1         0
      8475         1         0      8484         1         0      8487         1         0
      8490         1         0      8492         1         0      8494         1         0
      8497         1         0      8499         1         0      8501         1         0
      8504         1         0      8506         1         0      8508         1         0
      8511         1         0      8513         1         0      8515         1         0
      8518         1         0      8521         2         0      8524         1         0
      8527         2         0      8531         1         0      8534         1         0
      8537         1         0      8540         1         0      8543         1         0
      8546         1         0      8549         1         0      8552         1         0
      8555         1         0      8558         1         0      8561         1         0
      8564         1         0      8567         1         0      8570         1         0
      8573         1         0      8576         1         0      8580         2         0
      8586         2         0      8589         2         0      8600         1         0
      8608         1         0      8617         1         0      8620         1         0
      8623         1         0      8625         1         0      8627         1         0
      8630         1         0      8632         1         0      8634         1         0
      8637         1         0      8639         1         0      8641         1         0
      8644         1         0      8646         1         0      8648         1         0
      8651         1         0      8654         1         0      8657         1         0
      8660         1         0      8664         1         0      8667         1         0
      8670         1         0      8673         1         0      8676         1         0
      8679         1         0      8682         1         0      8685         1         0
      8688         1         0      8691         1         0      8694         1         0
      8697         1         0      8700         1         0      8703         1         0
      8706         1         0      8709         1         0      8713         2         0
      8729         2         0      8740         1         0      8744         1         0
      8748         1         0      8750         1         0      8752         1         0
      8755         1         0      8758         1         0      8761         1         0
      8764         1         0      8767         1         0      8770         1         0
      8773         1         0      8776         1         0      8779         1         0
      8782         1         0      8785         1         0      8788         1         0
      8792         1         0      8797         1         0      8800         1         0
      8803         1         0      8806         1         0      8809         1         0
      8812         1         0      8815         1         0      8817         1         0
      8819         1         0      8822         1         0      8825         1         0
      8828         1         0      8831         1         0      8834         1         0
      8837         1         0      8840         1         0      8844         2         0
      8851         2         0      8862         1         0      8870         1         0
      8879         1         0      8882         1         0      8885         1         0
      8887         1         0      8889         1         0      8892         1         0
      8894         1         0      8896         1         0      8899         1         0
      8901         1         0      8903         1         0      8906         1         0
      8908         1         0      8910         1         0      8913         1         0
      8916         1         0      8919         1         0      8922         1         0
      8926         1         0      8929         1         0      8932         1         0
      8935         1         0      8938         1         0      8941         1         0
      8944         1         0      8947         1         0      8950         1         0
      8953         1         0      8956         1         0      8959         1         0
      8962         1         0      8965         1         0      8968         1         0
      8971         1         0      8975         1         0      8979         1         0
      8982         1         0      8985         1         0      8988         1         0
      8990         1         0      8992         1         0      8995         1         0
      8998         1         0      9000         0         0      9001         1         0
      9005         1         0      9008         1         0      9011         1         0
      9013         0         0      9014         1         0      9018         1         0
      9021         1         0      9024         1         0      9026         1         0
      9030         1         0      9033         1         0      9036         1         0
      9039         1         0      9041         1         0      9045         1         0
      9049         2         0      9056         2         0      9067         1         0
      9075         1         0      9084         1         0      9087         1         0
      9090         1         0      9092         1         0      9094         1         0
      9097         1         0      9099         1         0      9101         1         0
      9104         1         0      9106         1         0      9108         1         0
      9111         1         0      9113         1         0      9115         1         0
      9118         1         0      9121         1         0      9124         1         0
      9127         1         0      9131         1         0      9134         1         0
      9137         1         0      9140         1         0      9143         1         0
      9146         1         0      9149         1         0      9152         1         0
      9155         1         0      9158         1         0      9161         1         0
      9164         1         0      9167         1         0      9170         1         0
      9173         1         0      9176         1         0      9180         2         0
      9196         2         0      9207         1         0      9215         1         0
      9224         1         0      9227         1         0      9230         1         0
      9232         1         0      9234         1         0      9237         1         0
      9239         1         0      9241         1         0      9244         1         0
      9246         1         0      9248         1         0      9251         1         0
      9253         1         0      9255         1         0      9258         1         0
      9261         2         0      9264         1         0      9267         2         0
      9271         1         0      9274         1         0      9277         1         0
      9280         1         0      9283         1         0      9286         1         0
      9289         1         0      9292         1         0      9295         1         0
      9298         1         0      9301         1         0      9304         1         0
      9307         1         0      9310         1         0      9313         1         0
      9316         1         0      9320         2         0      9326         2         0
      9329         2         0      9340         1         0      9348         1         0
      9357         1         0      9360         1         0      9363         1         0
      9365         1         0      9367         1         0      9370         1         0
      9372         1         0      9374         1         0      9377         1         0
      9379         1         0      9381         1         0      9384         1         0
      9386         1         0      9388         1         0      9391         1         0
      9394         1         0      9397         1         0      9400         1         0
      9404         1         0      9407         1         0      9410         1         0
      9413         1         0      9416         1         0      9419         1         0
      9422         1         0      9425         1         0      9428         1         0
      9431         1         0      9434         1         0      9437         1         0
      9440         1         0      9443         1         0      9446         1         0
      9449         1         0      9453         1         0      9457         1         0
      9460         1         0      9463         1         0      9466         1         0
      9468         1         0      9470         1         0      9473         1         0
      9476         1         0      9478         0         0      9479         1         0
      9483         1         0      9486         1         0      9489         1         0
      9491         0         0      9492         1         0      9496         1         0
      9499         1         0      9502         1         0      9504         1         0
      9508         1         0      9511         1         0      9514         1         0
      9517         1         0      9519         1         0      9523         1         0
      9527         2         0      9543         2         0      9554         1         0
      9558         1         0      9562         1         0      9564         1         0
      9566         1         0      9569         1         0      9572         1         0
      9575         1         0      9578         1         0      9581         1         0
      9584         1         0      9587         1         0      9590         1         0
      9593         1         0      9596         1         0      9599         1         0
      9602         1         0      9606         1         0      9611         1         0
      9614         1         0      9617         1         0      9620         1         0
      9623         1         0      9626         1         0      9629         1         0
      9631         1         0      9633         1         0      9636         1         0
      9639         1         0      9642         1         0      9645         1         0
      9648         1         0      9651         1         0      9654         1         0
      9658         2         0      9664         2         0      9667         2         0
      9678         1         0      9686         1         0      9695         1         0
      9698         1         0      9701         1         0      9703         1         0
      9705         1         0      9708         1         0      9710         1         0
      9712         1         0      9715         1         0      9717         1         0
      9719         1         0      9722         1         0      9724         1         0
      9726         1         0      9729         1         0      9732         1         0
      9735         1         0      9738         1         0      9742         1         0
      9745         1         0      9748         1         0      9751         1         0
      9754         1         0      9757         1         0      9760         1         0
      9763         1         0      9766         1         0      9769         1         0
      9772         1         0      9775         1         0      9778         1         0
      9781         1         0      9784         1         0      9787         1         0
      9791         2         0      9807         2         0      9818         1         0
      9826         1         0      9835         1         0      9838         1         0
      9841         1         0      9843         1         0      9845         1         0
      9848         1         0      9850         1         0      9852         1         0
      9855         1         0      9857         1         0      9859         1         0
      9862         1         0      9864         1         0      9866         1         0
      9869         1         0      9872         2         0      9875         1         0
      9878         2         0      9882         1         0      9885         1         0
      9888         1         0      9891         1         0      9894         1         0
      9897         1         0      9900         1         0      9903         1         0
      9906         1         0      9909         1         0      9912         1         0
      9915         1         0      9918         1         0      9921         1         0
      9924         1         0      9927         1         0      9931         1         0
      9935         1         0      9938         1         0      9941         1         0
      9944         1         0      9946         1         0      9948         1         0
      9951         1         0      9954         1         0      9956         0         0
      9957         1         0      9961         1         0      9964         1         0
      9967         1         0      9969         0         0      9970         1         0
      9974         1         0      9977         1         0      9980         1         0
      9982         1         0      9986         1         0      9989         1         0
      9992         1         0      9995         1         0      9997         1         0
     10001         1         0     10005         2         0     10021         2         0
     10032         1         0     10040         1         0     10049         1         0
     10052         1         0     10055         1         0     10058         1         0
     10061         1         0     10064         1         0     10067         1         0
     10069         1         0     10071         1         0     10074         1         0
     10076         1         0     10078         1         0     10081         1         0
     10084         1         0     10087         1         0     10090         1         0
     10094         1         0     10097         1         0     10100         1         0
     10103         1         0     10106         1         0     10109         1         0
     10112         1         0     10115         1         0     10118         1         0
     10121         1         0     10124         1         0     10127         1         0
     10130         1         0     10133         1         0     10136         1         0
     10139         1         0     10143         2         0     10159         2         0
     10170         1         0     10178         1         0     10187         1         0
     10190         1         0     10193         1         0     10196         1         0
     10199         1         0     10202         1         0     10205         1         0
     10207         1         0     10209         1         0     10212         1         0
     10214         1         0     10216         1         0     10219         1         0
     10222         1         0     10225         1         0     10228         1         0
     10232         1         0     10235         1         0     10238         1         0
     10241         1         0     10244         1         0     10247         1         0
     10250         1         0     10253         1         0     10256         1         0
     10259         1         0     10262         1         0     10265         1         0
     10268         1         0     10271         1         0     10274         1         0
     10277         1         0     10281         2         0     10297         2         0
     10308         1         0     10316         1         0     10325         1         0
     10328         1         0     10331         1         0     10334         1         0
     10337         1         0     10340         1         0     10343         1         0
     10345         1         0     10347         1         0     10350         1         0
     10353         1         0     10356         1         0     10359         1         0
     10362         1         0     10365         1         0     10368         1         0
     10372         1         0     10375         1         0     10378         1         0
     10381         1         0     10384         1         0     10387         1         0
     10390         1         0     10393         1         0     10396         1         0
     10399         1         0     10402         1         0     10405         1         0
     10408         1         0     10411         1         0     10415         1         0
     10419         1         0     10422         1         0     10425         1         0
     10428         1         0     10430         1         0     10432         1         0
     10435         1         0     10438         1         0     10440         0         0
     10441         1         0     10445         1         0     10448         1         0
     10451         1         0     10453         0         0     10454         1         0
     10458         1         0     10461         1         0     10464         1         0
     10466         1         0     10470         1         0     10473         1         0
     10476         1         0     10479         1         0     10481         1         0
     10485         1         0     10489         2         0     10496         2         0
     10507         1         0     10515         1         0     10524         1         0
     10527         1         0     10530         1         0     10533         1         0
     10536         1         0     10539         1         0     10542         1         0
     10544         1         0     10546         1         0     10549         1         0
     10552         1         0     10555         1         0     10558         1         0
     10561         1         0     10564         1         0     10567         1         0
     10571         1         0     10574         1         0     10577         1         0
     10580         1         0     10583         1         0     10586         1         0
     10589         1         0     10592         1         0     10595         1         0
     10598         1         0     10601         1         0     10604         1         0
     10607         1         0     10610         1         0     10613         1         0
     10616         1         0     10620         2         0     10627         2         0
     10638         1         0     10646         1         0     10655         1         0
     10658         1         0     10661         1         0     10663         1         0
     10665         1         0     10668         1         0     10670         1         0
     10672         1         0     10675         1         0     10677         1         0
     10679         1         0     10682         1         0     10684         1         0
     10686         1         0     10689         1         0     10692         1         0
     10695         1         0     10698         1         0     10702         1         0
     10705         1         0     10708         1         0     10711         1         0
     10714         1         0     10717         1         0     10720         1         0
     10723         1         0     10726         1         0     10729         1         0
     10732         1         0     10735         1         0     10738         1         0
     10741         1         0     10744         1         0     10747         1         0
     10751         2         0     10767         2         0     10778         1         0
     10786         1         0     10795         1         0     10798         1         0
     10801         1         0     10804         1         0     10807         1         0
     10810         1         0     10813         1         0     10815         1         0
     10817         1         0     10820         1         0     10822         1         0
     10824         1         0     10827         1         0     10830         1         0
     10833         1         0     10836         1         0     10840         1         0
     10843         1         0     10846         1         0     10849         1         0
     10852         1         0     10855         1         0     10858         1         0
     10861         1         0     10864         1         0     10867         1         0
     10870         1         0     10873         1         0     10876         1         0
     10879         1         0     10882         1         0     10885         1         0
     10889         2         0     10905         2         0     10916         1         0
     10924         1         0     10933         1         0     10936         1         0
     10939         1         0     10941         1         0     10943         1         0
     10946         1         0     10948         1         0     10950         1         0
     10953         1         0     10955         1         0     10957         1         0
     10960         1         0     10962         1         0     10964         1         0
     10967         1         0     10970         2         0     10973         1         0
     10976         2         0     10980         1         0     10983         1         0
     10986         1         0     10989         1         0     10992         1         0
     10995         1         0     10998         1         0     11001         1         0
     11004         1         0     11007         1         0     11010         1         0
     11013         1         0     11016         1         0     11019         1         0
     11022         1         0     11025         1         0     11029         2         0
     11045         2         0     11056         1         0     11060         1         0
     11064         1         0     11066         1         0     11068         1         0
     11071         1         0     11074         1         0     11077         1         0
     11080         1         0     11083         1         0     11086         1         0
     11089         1         0     11092         1         0     11095         1         0
     11098         1         0     11101         1         0     11104         1         0
     11108         1         0     11113         1         0     11116         1         0
     11119         1         0     11122         1         0     11125         1         0
     11128         1         0     11131         1         0     11133         1         0
     11135         1         0     11138         1         0     11141         1         0
     11144         1         0     11147         1         0     11150         1         0
     11153         1         0     11156         1         0     11160         2         0
     11167         2         0     11178         1         0     11186         1         0
     11195         1         0     11198         1         0     11201         1         0
     11203         1         0     11205         1         0     11208         1         0
     11210         1         0     11212         1         0     11215         1         0
     11217         1         0     11219         1         0     11222         1         0
     11224         1         0     11226         1         0     11229         1         0
     11232         1         0     11235         1         0     11238         1         0
     11242         1         0     11245         1         0     11248         1         0
     11251         1         0     11254         1         0     11257         1         0
     11260         1         0     11263         1         0     11266         1         0
     11269         1         0     11272         1         0     11275         1         0
     11278         1         0     11281         1         0     11284         1         0
     11287         1         0     11291         2         0     11298         2         0
     11309         1         0     11317         1         0     11326         1         0
     11329         1         0     11332         1         0     11334         1         0
     11336         1         0     11339         1         0     11341         1         0
     11343         1         0     11346         1         0     11348         1         0
     11350         1         0     11353         1         0     11355         1         0
     11357         1         0     11360         1         0     11363         1         0
     11366         1         0     11369         1         0     11373         1         0
     11376         1         0     11379         1         0     11382         1         0
     11385         1         0     11388         1         0     11391         1         0
     11394         1         0     11397         1         0     11400         1         0
     11403         1         0     11406         1         0     11409         1         0
     11412         1         0     11415         1         0     11418         1         0
     11422         2         0     11429         2         0     11440         1         0
     11448         1         0     11457         1         0     11460         1         0
     11463         1         0     11465         1         0     11467         1         0
     11470         1         0     11472         1         0     11474         1         0
     11477         1         0     11479         1         0     11481         1         0
     11484         1         0     11486         1         0     11488         1         0
     11491         1         0     11494         1         0     11497         1         0
     11500         1         0     11504         1         0     11507         1         0
     11510         1         0     11513         1         0     11516         1         0
     11519         1         0     11522         1         0     11525         1         0
     11528         1         0     11531         1         0     11534         1         0
     11537         1         0     11540         1         0     11543         1         0
     11546         1         0     11549         1         0     11553         2         0
     11559         2         0     11562         2         0     11573         1         0
     11581         1         0     11590         1         0     11593         1         0
     11596         1         0     11598         1         0     11600         1         0
     11603         1         0     11605         1         0     11607         1         0
     11610         1         0     11612         1         0     11614         1         0
     11617         1         0     11619         1         0     11621         1         0
     11624         1         0     11627         1         0     11630         1         0
     11633         1         0     11637         1         0     11640         1         0
     11643         1         0     11646         1         0     11649         1         0
     11652         1         0     11655         1         0     11658         1         0
     11661         1         0     11664         1         0     11667         1         0
     11670         1         0     11673         1         0     11676         1         0
     11679         1         0     11682         1         0     11686         2         0
     11702         2         0     11713         1         0     11717         1         0
     11721         1         0     11723         1         0     11725         1         0
     11728         1         0     11731         1         0     11734         1         0
     11737         1         0     11740         1         0     11743         1         0
     11746         1         0     11749         1         0     11752         1         0
     11755         1         0     11758         1         0     11761         1         0
     11765         1         0     11770         1         0     11773         1         0
     11776         1         0     11779         1         0     11782         1         0
     11785         1         0     11788         1         0     11790         1         0
     11792         1         0     11795         1         0     11798         1         0
     11801         1         0     11804         1         0     11807         1         0
     11810         1         0     11813         1         0     11817         2         0
     11833         2         0     11844         1         0     11852         1         0
     11861         1         0     11864         1         0     11867         1         0
     11870         1         0     11873         1         0     11876         1         0
     11879         1         0     11881         1         0     11883         1         0
     11886         1         0     11889         1         0     11892         1         0
     11895         1         0     11898         1         0     11901         1         0
     11904         1         0     11908         1         0     11911         1         0
     11914         1         0     11917         1         0     11920         1         0
     11923         1         0     11926         1         0     11929         1         0
     11932         1         0     11935         1         0     11938         1         0
     11941         1         0     11944         1         0     11947         1         0
     11951         2         0     11967         2         0     11978         1         0
     11986         1         0     11995         1         0     11998         1         0
     12001         1         0     12003         1         0     12005         1         0
     12008         1         0     12010         1         0     12012         1         0
     12015         1         0     12017         1         0     12019         1         0
     12022         1         0     12024         1         0     12026         1         0
     12029         1         0     12032         2         0     12035         1         0
     12038         2         0     12042         1         0     12045         1         0
     12048         1         0     12051         1         0     12054         1         0
     12057         1         0     12060         1         0     12063         1         0
     12066         1         0     12069         1         0     12072         1         0
     12075         1         0     12078         1         0     12081         1         0
     12084         1         0     12087         1         0     12091         1         0
     12095         1         0     12098         1         0     12101         1         0
     12104         1         0     12106         1         0     12108         1         0
     12111         1         0     12114         1         0     12116         0         0
     12117         1         0     12121         1         0     12124         1         0
     12127         1         0     12129         0         0     12130         1         0
     12134         1         0     12137         1         0     12140         1         0
     12142         1         0     12146         1         0     12149         1         0
     12152         1         0     12155         1         0     12157         1         0
     12161         1         0     12165         1         0     12169         1         0
     12172         1         0     12175         1         0     12178         1         0
     12180         1         0     12182         1         0     12185         1         0
     12188         1         0     12190         0         0     12191         1         0
     12195         1         0     12198         1         0     12201         1         0
     12203         0         0     12204         1         0     12208         1         0
     12211         1         0     12214         1         0     12216         1         0
     12220         1         0     12223         1         0     12226         1         0
     12229         1         0     12231         1         0     12235         1         0
     12239         2         0     12255         2         0     12266         1         0
     12274         1         0     12283         1         0     12286         1         0
     12289         1         0     12292         1         0     12295         1         0
     12298         1         0     12301         1         0     12303         1         0
     12305         1         0     12308         1         0     12310         1         0
     12312         1         0     12315         1         0     12318         1         0
     12321         1         0     12324         1         0     12328         1         0
     12331         1         0     12334         1         0     12337         1         0
     12340         1         0     12343         1         0     12346         1         0
     12349         1         0     12352         1         0     12355         1         0
     12358         1         0     12361         1         0     12364         1         0
     12367         1         0     12370         1         0     12373         1         0
     12377         1         0     12381         1         0     12384         1         0
     12387         1         0     12390         1         0     12392         1         0
     12394         1         0     12397         1         0     12400         1         0
     12402         0         0     12403         1         0     12407         1         0
     12410         1         0     12413         1         0     12415         0         0
     12416         1         0     12420         1         0     12423         1         0
     12426         1         0     12428         1         0     12432         1         0
     12435         1         0     12438         1         0     12441         1         0
     12443         1         0     12447         1         0     12451         2         0
     12458         2         0     12469         1         0     12477         1         0
     12486         1         0     12489         1         0     12492         1         0
     12494         1         0     12496         1         0     12499         1         0
     12501         1         0     12503         1         0     12506         1         0
     12508         1         0     12510         1         0     12513         1         0
     12515         1         0     12517         1         0     12520         1         0
     12523         1         0     12526         1         0     12529         1         0
     12533         1         0     12536         1         0     12539         1         0
     12542         1         0     12545         1         0     12548         1         0
     12551         1         0     12554         1         0     12557         1         0
     12560         1         0     12563         1         0     12566         1         0
     12569         1         0     12572         1         0     12575         1         0
     12578         1         0     12582         2         0     12589         2         0
     12600         1         0     12608         1         0     12617         1         0
     12620         1         0     12623         1         0     12626         1         0
     12629         1         0     12632         1         0     12635         1         0
     12637         1         0     12639         1         0     12642         1         0
     12645         1         0     12648         1         0     12651         1         0
     12654         1         0     12657         1         0     12660         1         0
     12664         1         0     12667         1         0     12670         1         0
     12673         1         0     12676         1         0     12679         1         0
     12682         1         0     12685         1         0     12688         1         0
     12691         1         0     12694         1         0     12697         1         0
     12700         1         0     12703         1         0     12706         1         0
     12709         1         0     12713         1         0     12717         1         0
     12720         1         0     12723         1         0     12726         1         0
     12728         1         0     12730         1         0     12733         1         0
     12736         1         0     12738         0         0     12739         1         0
     12743         1         0     12746         1         0     12749         1         0
     12751         0         0     12752         1         0     12756         1         0
     12759         1         0     12762         1         0     12764         1         0
     12768         1         0     12771         1         0     12774         1         0
     12777         1         0     12779         1         0     12783         1         0
     12787         2         0     12803         2         0     12814         1         0
     12822         1         0     12831         1         0     12834         1         0
     12837         1         0     12840         1         0     12843         1         0
     12846         1         0     12849         1         0     12851         1         0
     12853         1         0     12856         1         0     12858         1         0
     12860         1         0     12863         1         0     12866         1         0
     12869         1         0     12872         1         0     12876         1         0
     12879         1         0     12882         1         0     12885         1         0
     12888         1         0     12891         1         0     12894         1         0
     12897         1         0     12900         1         0     12903         1         0
     12906         1         0     12909         1         0     12912         1         0
     12915         1         0     12918         1         0     12921         1         0
     12925         1         0     12929         1         0     12932         1         0
     12935         1         0     12938         1         0     12940         1         0
     12942         1         0     12945         1         0     12948         1         0
     12950         0         0     12951         1         0     12955         1         0
     12958         1         0     12961         1         0     12963         0         0
     12964         1         0     12968         1         0     12971         1         0
     12974         1         0     12976         1         0     12980         1         0
     12983         1         0     12986         1         0     12989         1         0
     12991         1         0     12995         1         0     12999         2         0
     13015         2         0     13026         1         0     13030         1         0
     13034         1         0     13036         1         0     13038         1         0
     13041         1         0     13044         1         0     13047         1         0
     13050         1         0     13053         1         0     13056         1         0
     13059         1         0     13062         1         0     13065         1         0
     13068         1         0     13071         1         0     13074         1         0
     13078         1         0     13083         1         0     13086         1         0
     13089         1         0     13092         1         0     13095         1         0
     13098         1         0     13101         1         0     13103         1         0
     13105         1         0     13108         1         0     13111         1         0
     13114         1         0     13117         1         0     13120         1         0
     13123         1         0     13126         1         0     13130         2         0
     13146         2         0     13157         1         0     13161         1         0
     13165         1         0     13167         1         0     13169         1         0
     13172         1         0     13175         1         0     13178         1         0
     13181         1         0     13184         1         0     13187         1         0
     13190         1         0     13193         1         0     13196         1         0
     13199         1         0     13202         1         0     13205         1         0
     13209         1         0     13214         1         0     13217         1         0
     13220         1         0     13223         1         0     13226         1         0
     13229         1         0     13232         1         0     13234         1         0
     13236         1         0     13239         1         0     13242         1         0
     13245         1         0     13248         1         0     13251         1         0
     13254         1         0     13257         1         0     13261         2         0
     13277         2         0     13288         1         0     13292         1         0
     13296         1         0     13298         1         0     13300         1         0
     13303         1         0     13306         1         0     13309         1         0
     13312         1         0     13315         1         0     13318         1         0
     13321         1         0     13324         1         0     13327         1         0
     13330         1         0     13333         1         0     13336         1         0
     13340         1         0     13345         1         0     13348         1         0
     13351         1         0     13354         1         0     13357         1         0
     13360         1         0     13363         1         0     13365         1         0
     13367         1         0     13370         1         0     13373         1         0
     13376         1         0     13379         1         0     13382         1         0
     13385         1         0     13388         1         0     13392         2         0
     13408         2         0     13419         1         0     13423         1         0
     13427         1         0     13429         1         0     13431         1         0
     13434         1         0     13437         1         0     13440         1         0
     13443         1         0     13446         1         0     13449         1         0
     13452         1         0     13455         1         0     13458         1         0
     13461         1         0     13464         1         0     13467         1         0
     13471         1         0     13476         1         0     13479         1         0
     13482         1         0     13485         1         0     13488         1         0
     13491         1         0     13494         1         0     13496         1         0
     13498         1         0     13501         1         0     13504         1         0
     13507         1         0     13510         1         0     13513         1         0
     13516         1         0     13519         1         0     13523         2         0
     13539         2         0     13550         1         0     13554         1         0
     13558         1         0     13560         1         0     13562         1         0
     13565         1         0     13568         1         0     13571         1         0
     13574         1         0     13577         1         0     13580         1         0
     13583         1         0     13586         1         0     13589         1         0
     13592         1         0     13595         1         0     13598         1         0
     13602         1         0     13607         1         0     13610         1         0
     13613         1         0     13616         1         0     13619         1         0
     13622         1         0     13625         1         0     13627         1         0
     13629         1         0     13632         1         0     13635         1         0
     13638         1         0     13641         1         0     13644         1         0
     13647         1         0     13650         1         0     13654         2         0
     13670         2         0     13681         1         0     13689         1         0
     13698         1         0     13701         1         0     13704         1         0
     13706         1         0     13708         1         0     13711         1         0
     13713         1         0     13715         1         0     13718         1         0
     13720         1         0     13722         1         0     13725         1         0
     13727         1         0     13729         1         0     13732         1         0
     13735         2         0     13738         1         0     13741         2         0
     13745         1         0     13748         1         0     13751         1         0
     13754         1         0     13757         1         0     13760         1         0
     13763         1         0     13766         1         0     13769         1         0
     13772         1         0     13775         1         0     13778         1         0
     13781         1         0     13784         1         0     13787         1         0
     13790         1         0     13794         1         0     13798         1         0
     13801         1         0     13804         1         0     13807         1         0
     13809         1         0     13811         1         0     13814         1         0
     13817         1         0     13819         0         0     13820         1         0
     13824         1         0     13827         1         0     13830         1         0
     13832         0         0     13833         1         0     13837         1         0
     13840         1         0     13843         1         0     13845         1         0
     13849         1         0     13852         1         0     13855         1         0
     13858         1         0     13860         1         0     13864         1         0
     13868         2         0     13875         2         0     13886         1         0
     13894         1         0     13903         1         0     13906         1         0
     13909         1         0     13911         1         0     13913         1         0
     13916         1         0     13918         1         0     13920         1         0
     13923         1         0     13925         1         0     13927         1         0
     13930         1         0     13932         1         0     13934         1         0
     13937         1         0     13940         1         0     13943         1         0
     13946         1         0     13950         1         0     13953         1         0
     13956         1         0     13959         1         0     13962         1         0
     13965         1         0     13968         1         0     13971         1         0
     13974         1         0     13977         1         0     13980         1         0
     13983         1         0     13986         1         0     13989         1         0
     13992         1         0     13995         1         0     13999         2         0
     14015         2         0     14026         1         0     14034         1         0
     14043         1         0     14046         1         0     14049         1         0
     14052         1         0     14055         1         0     14058         1         0
     14061         1         0     14063         1         0     14065         1         0
     14068         1         0     14070         1         0     14072         1         0
     14075         1         0     14078         1         0     14081         1         0
     14084         1         0     14088         1         0     14091         1         0
     14094         1         0     14097         1         0     14100         1         0
     14103         1         0     14106         1         0     14109         1         0
     14112         1         0     14115         1         0     14118         1         0
     14121         1         0     14124         1         0     14127         1         0
     14130         1         0     14133         1         0     14137         1         0
     14141         1         0     14145         1         0     14149         1         0
     14153         1         0     14157         2         0     14167         1         0
     14175         1         0     14184         1         0     14187         1         0
     14190         1         0     14192         1         0     14194         1         0
     14197         1         0     14199         1         0     14201         1         0
     14204         1         0     14206         1         0     14208         1         0
     14211         1         0     14213         1         0     14215         1         0
     14218         1         0     14221         1         0     14224         1         0
     14227         1         0     14231         1         0     14234         1         0
     14237         1         0     14240         1         0     14243         1         0
     14246         1         0     14249         1         0     14252         1         0
     14255         1         0     14258         1         0     14261         1         0
     14264         1         0     14267         1         0     14270         1         0
     14273         1         0     14276         1         0     14280         2         0
     14287         2         0     14298         1         0     14306         1         0
     14315         1         0     14318         1         0     14321         1         0
     14323         1         0     14325         1         0     14328         1         0
     14330         1         0     14332         1         0     14335         1         0
     14337         1         0     14339         1         0     14342         1         0
     14344         1         0     14346         1         0     14349         1         0
     14352         1         0     14355         1         0     14358         1         0
     14362         1         0     14365         1         0     14368         1         0
     14371         1         0     14374         1         0     14377         1         0
     14380         1         0     14383         1         0     14386         1         0
     14389         1         0     14392         1         0     14395         1         0
     14398         1         0     14401         1         0     14404         1         0
     14407         1         0     14411         2         0     14427         2         0
     14438         1         0     14446         1         0     14455         1         0
     14458         1         0     14461         1         0     14464         1         0
     14467         1         0     14470         1         0     14473         1         0
     14475         1         0     14477         1         0     14480         1         0
     14482         1         0     14484         1         0     14487         1         0
     14490         1         0     14493         1         0     14496         1         0
     14500         1         0     14503         1         0     14506         1         0
     14509         1         0     14512         1         0     14515         1         0
     14518         1         0     14521         1         0     14524         1         0
     14527         1         0     14530         1         0     14533         1         0
     14536         1         0     14539         1         0     14542         1         0
     14545         1         0     14549         2         0     14565         2         0
     14576         1         0     14580         1         0     14584         1         0
     14586         1         0     14588         1         0     14591         1         0
     14594         1         0     14597         1         0     14600         1         0
     14603         1         0     14606         1         0     14609         1         0
     14612         1         0     14615         1         0     14618         1         0
     14621         1         0     14624         1         0     14628         1         0
     14633         1         0     14636         1         0     14639         1         0
     14642         1         0     14645         1         0     14648         1         0
     14651         1         0     14653         1         0     14655         1         0
     14658         1         0     14661         1         0     14664         1         0
     14667         1         0     14670         1         0     14673         1         0
     14676         1         0     14680         2         0     14696         2         0
     14707         1         0     14711         1         0     14715         1         0
     14717         1         0     14719         1         0     14722         1         0
     14725         1         0     14728         1         0     14731         1         0
     14734         1         0     14737         1         0     14740         1         0
     14743         1         0     14746         1         0     14749         1         0
     14752         1         0     14755         1         0     14759         1         0
     14764         1         0     14767         1         0     14770         1         0
     14773         1         0     14776         1         0     14779         1         0
     14782         1         0     14784         1         0     14786         1         0
     14789         1         0     14792         1         0     14795         1         0
     14798         1         0     14801         1         0     14804         1         0
     14807         1         0     14811         2         0     14827         2         0
     14838         1         0     14842         1         0     14846         1         0
     14848         1         0     14850         1         0     14853         1         0
     14856         1         0     14859         1         0     14862         1         0
     14865         1         0     14868         1         0     14871         1         0
     14874         1         0     14877         1         0     14880         1         0
     14883         1         0     14886         1         0     14890         1         0
     14895         1         0     14898         1         0     14901         1         0
     14904         1         0     14907         1         0     14910         1         0
     14913         1         0     14915         1         0     14917         1         0
     14920         1         0     14923         1         0     14926         1         0
     14929         1         0     14932         1         0     14935         1         0
     14938         1         0     14942         2         0     14958         2         0
     14969         1         0     14977         1         0     14986         1         0
     14989         1         0     14992         1         0     14995         1         0
     14998         1         0     15001         1         0     15004         1         0
     15006         1         0     15008         1         0     15011         1         0
     15014         1         0     15017         1         0     15020         1         0
     15023         1         0     15026         1         0     15029         1         0
     15033         1         0     15036         1         0     15039         1         0
     15042         1         0     15045         1         0     15048         1         0
     15051         1         0     15054         1         0     15057         1         0
     15060         1         0     15063         1         0     15066         1         0
     15069         1         0     15072         1         0     15076         2         0
     15082         2         0     15085         2         0     15096         1         0
     15104         1         0     15113         1         0     15116         1         0
     15119         1         0     15121         1         0     15123         1         0
     15126         1         0     15128         1         0     15130         1         0
     15133         1         0     15135         1         0     15137         1         0
     15140         1         0     15142         1         0     15144         1         0
     15147         1         0     15150         1         0     15153         1         0
     15156         1         0     15160         1         0     15163         1         0
     15166         1         0     15169         1         0     15172         1         0
     15175         1         0     15178         1         0     15181         1         0
     15184         1         0     15187         1         0     15190         1         0
     15193         1         0     15196         1         0     15199         1         0
     15202         1         0     15205         1         0     15209         1         0
     15213         1         0     15216         1         0     15219         1         0
     15222         1         0     15224         1         0     15226         1         0
     15229         1         0     15232         1         0     15234         0         0
     15235         1         0     15239         1         0     15242         1         0
     15245         1         0     15247         0         0     15248         1         0
     15252         1         0     15255         1         0     15258         1         0
     15260         1         0     15264         1         0     15267         1         0
     15270         1         0     15273         1         0     15275         1         0
     15279         1         0     15283         2         0     15290         2         0
     15301         1         0     15309         1         0     15318         1         0
     15321         1         0     15324         1         0     15326         1         0
     15328         1         0     15331         1         0     15333         1         0
     15335         1         0     15338         1         0     15340         1         0
     15342         1         0     15345         1         0     15347         1         0
     15349         1         0     15352         1         0     15355         1         0
     15358         1         0     15361         1         0     15365         1         0
     15368         1         0     15371         1         0     15374         1         0
     15377         1         0     15380         1         0     15383         1         0
     15386         1         0     15389         1         0     15392         1         0
     15395         1         0     15398         1         0     15401         1         0
     15404         1         0     15407         1         0     15410         1         0
     15414         2         0     15430         2         0     15441         1         0
     15449         1         0     15458         1         0     15461         1         0
     15464         1         0     15467         1         0     15470         1         0
     15473         1         0     15476         1         0     15478         1         0
     15480         1         0     15483         1         0     15486         1         0
     15489         1         0     15492         1         0     15495         1         0
     15498         1         0     15501         1         0     15505         1         0
     15508         1         0     15511         1         0     15514         1         0
     15517         1         0     15520         1         0     15523         1         0
     15526         1         0     15529         1         0     15532         1         0
     15535         1         0     15538         1         0     15541         1         0
     15544         1         0     15548         1         0     15552         1         0
     15555         1         0     15558         1         0     15561         1         0
     15563         1         0     15565         1         0     15568         1         0
     15571         1         0     15573         0         0     15574         1         0
     15578         1         0     15581         1         0     15584         1         0
     15586         0         0     15587         1         0     15591         1         0
     15594         1         0     15597         1         0     15599         1         0
     15603         1         0     15606         1         0     15609         1         0
     15612         1         0     15614         1         0     15618         1         0
     15622         1         0     15626         1         0     15629         1         0
     15632         1         0     15635         1         0     15637         1         0
     15639         1         0     15642         1         0     15645         1         0
     15647         0         0     15648         1         0     15652         1         0
     15655         1         0     15658         1         0     15660         0         0
     15661         1         0     15665         1         0     15668         1         0
     15671         1         0     15673         1         0     15677         1         0
     15680         1         0     15683         1         0     15686         1         0
     15688         1         0     15692         1         0     15696         1         0
     15700         1         0     15703         1         0     15706         1         0
     15709         1         0     15711         1         0     15713         1         0
     15716         1         0     15719         1         0     15721         0         0
     15722         1         0     15726         1         0     15729         1         0
     15732         1         0     15734         0         0     15735         1         0
     15739         1         0     15742         1         0     15745         1         0
     15747         1         0     15751         1         0     15754         1         0
     15757         1         0     15760         1         0     15762         1         0
     15766         1         0     15770         2         0     15777         2         0
     15788         1         0     15796         1         0     15805         1         0
     15808         1         0     15811         1         0     15814         1         0
     15817         1         0     15820         1         0     15823         1         0
     15825         1         0     15827         1         0     15830         1         0
     15833         1         0     15836         1         0     15839         1         0
     15842         1         0     15845         1         0     15848         1         0
     15852         1         0     15855         1         0     15858         1         0
     15861         1         0     15864         1         0     15867         1         0
     15870         1         0     15873         1         0     15876         1         0
     15879         1         0     15882         1         0     15885         1         0
     15888         1         0     15891         1         0     15894         1         0
     15897         1         0     15901         2         0     15917         2         0
     15928         1         0     15932         1         0     15936         1         0
     15938         1         0     15940         1         0     15943         1         0
     15946         1         0     15949         1         0     15952         1         0
     15955         1         0     15958         1         0     15961         1         0
     15964         1         0     15967         1         0     15970         1         0
     15973         1         0     15976         1         0     15980         1         0
     15985         1         0     15988         1         0     15991         1         0
     15994         1         0     15997         1         0     16000         1         0
     16003         1         0     16005         1         0     16007         1         0
     16010         1         0     16013         1         0     16016         1         0
     16019         1         0     16022         1         0     16025         1         0
     16028         1         0     16032         1         0     16036         1         0
     16039         1         0     16042         1         0     16045         1         0
     16047         1         0     16049         1         0     16052         1         0
     16055         1         0     16057         0         0     16058         1         0
     16062         1         0     16065         1         0     16068         1         0
     16070         0         0     16071         1         0     16075         1         0
     16078         1         0     16081         1         0     16083         1         0
     16087         1         0     16090         1         0     16093         1         0
     16096         1         0     16098         1         0     16102         1         0
     16106         1         0     16110         1         0     16113         1         0
     16116         1         0     16119         1         0     16121         1         0
     16123         1         0     16126         1         0     16129         1         0
     16131         0         0     16132         1         0     16136         1         0
     16139         1         0     16142         1         0     16144         0         0
     16145         1         0     16149         1         0     16152         1         0
     16155         1         0     16157         1         0     16161         1         0
     16164         1         0     16167         1         0     16170         1         0
     16172         1         0     16176         1         0     16180         2         0
     16186         2         0     16189         2         0     16200         1         0
     16208         1         0     16217         1         0     16220         1         0
     16223         1         0     16225         1         0     16227         1         0
     16230         1         0     16232         1         0     16234         1         0
     16237         1         0     16239         1         0     16241         1         0
     16244         1         0     16246         1         0     16248         1         0
     16251         1         0     16254         1         0     16257         1         0
     16260         1         0     16264         1         0     16267         1         0
     16270         1         0     16273         1         0     16276         1         0
     16279         1         0     16282         1         0     16285         1         0
     16288         1         0     16291         1         0     16294         1         0
     16297         1         0     16300         1         0     16303         1         0
     16306         1         0     16309         1         0     16313         2         0
     16329         2         0     16340         1         0     16344         1         0
     16348         1         0     16350         1         0     16352         1         0
     16355         1         0     16358         1         0     16361         1         0
     16364         1         0     16367         1         0     16370         1         0
     16373         1         0     16376         1         0     16379         1         0
     16382         1         0     16385         1         0     16388         1         0
     16392         1         0     16397         1         0     16400         1         0
     16403         1         0     16406         1         0     16409         1         0
     16412         1         0     16415         1         0     16417         1         0
     16419         1         0     16422         1         0     16425         1         0
     16428         1         0     16431         1         0     16434         1         0
     16437         1         0     16440         1         0     16444         2         0
     16460         2         0     16471         1         0     16479         1         0
     16488         1         0     16491         1         0     16494         1         0
     16497         1         0     16500         1         0     16503         1         0
     16506         1         0     16508         1         0     16510         1         0
     16513         1         0     16515         1         0     16517         1         0
     16520         1         0     16523         1         0     16526         1         0
     16529         1         0     16533         1         0     16536         1         0
     16539         1         0     16542         1         0     16545         1         0
     16548         1         0     16551         1         0     16554         1         0
     16557         1         0     16560         1         0     16563         1         0
     16566         1         0     16569         1         0     16572         1         0
     16575         1         0     16578         1         0     16582         1         0
     16586         1         0     16589         1         0     16592         1         0
     16595         1         0     16597         1         0     16599         1         0
     16602         1         0     16605         1         0     16607         0         0
     16608         1         0     16612         1         0     16615         1         0
     16618         1         0     16620         0         0     16621         1         0
     16625         1         0     16628         1         0     16631         1         0
     16633         1         0     16637         1         0     16640         1         0
     16643         1         0     16646         1         0     16648         1         0
     16652         1         0     16656         2         0     16663         2         0
     16674         1         0     16682         1         0     16691         1         0
     16694         1         0     16697         1         0     16700         1         0
     16703         1         0     16706         1         0     16709         1         0
     16711         1         0     16713         1         0     16716         1         0
     16719         1         0     16722         1         0     16725         1         0
     16728         1         0     16731         1         0     16734         1         0
     16738         1         0     16741         1         0     16744         1         0
     16747         1         0     16750         1         0     16753         1         0
     16756         1         0     16759         1         0     16762         1         0
     16765         1         0     16768         1         0     16771         1         0
     16774         1         0     16777         1         0     16780         1         0
     16783         1         0     16787         2         0     16803         2         0
     16814         1         0     16818         1         0     16822         1         0
     16824         1         0     16826         1         0     16829         1         0
     16832         1         0     16835         1         0     16838         1         0
     16841         1         0     16844         1         0     16847         1         0
     16850         1         0     16853         1         0     16856         1         0
     16859         1         0     16862         1         0     16866         1         0
     16871         1         0     16874         1         0     16877         1         0
     16880         1         0     16883         1         0     16886         1         0
     16889         1         0     16891         1         0     16893         1         0
     16896         1         0     16899         1         0     16902         1         0
     16905         1         0     16908         1         0     16911         1         0
     16914         1         0     16918         2         0     16925         2         0
     16936         1         0     16944         1         0     16953         1         0
     16956         1         0     16959         1         0     16961         1         0
     16963         1         0     16966         1         0     16968         1         0
     16970         1         0     16973         1         0     16975         1         0
     16977         1         0     16980         1         0     16982         1         0
     16984         1         0     16987         1         0     16990         1         0
     16993         1         0     16996         1         0     17000         1         0
     17003         1         0     17006         1         0     17009         1         0
     17012         1         0     17015         1         0     17018         1         0
     17021         1         0     17024         1         0     17027         1         0
     17030         1         0     17033         1         0     17036         1         0
     17039         1         0     17042         1         0     17045         1         0
     17049         2         0     17056         2         0     17067         1         0
     17075         1         0     17084         1         0     17087         1         0
     17090         1         0     17092         1         0     17094         1         0
     17097         1         0     17099         1         0     17101         1         0
     17104         1         0     17106         1         0     17108         1         0
     17111         1         0     17113         1         0     17115         1         0
     17118         1         0     17121         1         0     17124         1         0
     17127         1         0     17131         1         0     17134         1         0
     17137         1         0     17140         1         0     17143         1         0
     17146         1         0     17149         1         0     17152         1         0
     17155         1         0     17158         1         0     17161         1         0
     17164         1         0     17167         1         0     17170         1         0
     17173         1         0     17176         1         0     17180         2         0
     17187         2         0     17198         1         0     17206         1         0
     17215         1         0     17218         1         0     17221         1         0
     17224         1         0     17227         1         0     17230         1         0
     17233         1         0     17235         1         0     17237         1         0
     17240         1         0     17243         1         0     17246         1         0
     17249         1         0     17252         1         0     17255         1         0
     17258         1         0     17262         1         0     17265         1         0
     17268         1         0     17271         1         0     17274         1         0
     17277         1         0     17280         1         0     17283         1         0
     17286         1         0     17289         1         0     17292         1         0
     17295         1         0     17298         1         0     17301         1         0
     17304         1         0     17307         1         0     17311         1         0
     17315         1         0     17319         1         0     17323         1         0
     17327         1         0     17331         2         0     17341         1         0
     17349         1         0     17358         1         0     17361         1         0
     17364         1         0     17366         1         0     17368         1         0
     17371         1         0     17373         1         0     17375         1         0
     17378         1         0     17380         1         0     17382         1         0
     17385         1         0     17387         1         0     17389         1         0
     17392         1         0     17395         1         0     17398         1         0
     17401         1         0     17405         1         0     17408         1         0
     17411         1         0     17414         1         0     17417         1         0
     17420         1         0     17423         1         0     17426         1         0
     17429         1         0     17432         1         0     17435         1         0
     17438         1         0     17441         1         0     17444         1         0
     17447         1         0     17450         1         0     17454         2         0
     17470         2         0     17481         1         0     17485         1         0
     17489         1         0     17491         1         0     17493         1         0
     17496         1         0     17499         1         0     17502         1         0
     17505         1         0     17508         1         0     17511         1         0
     17514         1         0     17517         1         0     17520         1         0
     17523         1         0     17526         1         0     17529         1         0
     17533         1         0     17538         1         0     17541         1         0
     17544         1         0     17547         1         0     17550         1         0
     17553         1         0     17556         1         0     17558         1         0
     17560         1         0     17563         1         0     17566         1         0
     17569         1         0     17572         1         0     17575         1         0
     17578         1         0     17581         1         0     17585         1         0
     17589         1         0     17592         1         0     17595         1         0
     17598         1         0     17600         1         0     17602         1         0
     17605         1         0     17608         1         0     17610         0         0
     17611         1         0     17615         1         0     17618         1         0
     17621         1         0     17623         0         0     17624         1         0
     17628         1         0     17631         1         0     17634         1         0
     17636         1         0     17640         1         0     17643         1         0
     17646         1         0     17649         1         0     17651         1         0
     17655         1         0     17659         1         0     17663         1         0
     17666         1         0     17669         1         0     17672         1         0
     17674         1         0     17676         1         0     17679         1         0
     17682         1         0     17684         0         0     17685         1         0
     17689         1         0     17692         1         0     17695         1         0
     17697         0         0     17698         1         0     17702         1         0
     17705         1         0     17708         1         0     17710         1         0
     17714         1         0     17717         1         0     17720         1         0
     17723         1         0     17725         1         0     17729         1         0
     17733         1         0     17737         1         0     17740         1         0
     17743         1         0     17746         1         0     17748         1         0
     17750         1         0     17753         1         0     17756         1         0
     17758         0         0     17759         1         0     17763         1         0
     17766         1         0     17769         1         0     17771         0         0
     17772         1         0     17776         1         0     17779         1         0
     17782         1         0     17784         1         0     17788         1         0
     17791         1         0     17794         1         0     17797         1         0
     17799         1         0     17803         1         0     17807         1         0
     17811         1         0     17814         1         0     17817         1         0
     17820         1         0     17822         1         0     17824         1         0
     17827         1         0     17830         1         0     17832         0         0
     17833         1         0     17837         1         0     17840         1         0
     17843         1         0     17845         0         0     17846         1         0
     17850         1         0     17853         1         0     17856         1         0
     17858         1         0     17862         1         0     17865         1         0
     17868         1         0     17871         1         0     17873         1         0
     17877         1         0     17881         1         0     17885         1         0
     17888         1         0     17891         1         0     17894         1         0
     17896         1         0     17898         1         0     17901         1         0
     17904         1         0     17906         0         0     17907         1         0
     17911         1         0     17914         1         0     17917         1         0
     17919         0         0     17920         1         0     17924         1         0
     17927         1         0     17930         1         0     17932         1         0
     17936         1         0     17939         1         0     17942         1         0
     17945         1         0     17947         1         0     17951         1         0
     17955         1         0     17959         1         0     17962         1         0
     17965         1         0     17968         1         0     17970         1         0
     17972         1         0     17975         1         0     17978         1         0
     17980         0         0     17981         1         0     17985         1         0
     17988         1         0     17991         1         0     17993         0         0
     17994         1         0     17998         1         0     18001         1         0
     18004         1         0     18006         1         0     18010         1         0
     18013         1         0     18016         1         0     18019         1         0
     18021         1         0     18025         1         0     18029         2         0
     18045         2         0     18056         1         0     18060         1         0
     18064         1         0     18066         1         0     18068         1         0
     18071         1         0     18074         1         0     18077         1         0
     18080         1         0     18083         1         0     18086         1         0
     18089         1         0     18092         1         0     18095         1         0
     18098         1         0     18101         1         0     18104         1         0
     18108         1         0     18113         1         0     18116         1         0
     18119         1         0     18122         1         0     18125         1         0
     18128         1         0     18131         1         0     18133         1         0
     18135         1         0     18138         1         0     18141         1         0
     18144         1         0     18147         1         0     18150         1         0
     18153         1         0     18156         1         0     18160         2         0
     18176         2         0     18187         1         0     18195         1         0
     18204         1         0     18207         1         0     18210         1         0
     18212         1         0     18214         1         0     18217         1         0
     18219         1         0     18221         1         0     18224         1         0
     18226         1         0     18228         1         0     18231         1         0
     18233         1         0     18235         1         0     18238         1         0
     18241         2         0     18244         1         0     18247         2         0
     18251         1         0     18254         1         0     18257         1         0
     18260         1         0     18263         1         0     18266         1         0
     18269         1         0     18272         1         0     18275         1         0
     18278         1         0     18281         1         0     18284         1         0
     18287         1         0     18290         1         0     18293         1         0
     18296         1         0     18300         2         0     18307         2         0
     18318         1         0     18326         1         0     18335         1         0
     18338         1         0     18341         1         0     18343         1         0
     18345         1         0     18348         1         0     18350         1         0
     18352         1         0     18355         1         0     18357         1         0
     18359         1         0     18362         1         0     18364         1         0
     18366         1         0     18369         1         0     18372         1         0
     18375         1         0     18378         1         0     18382         1         0
     18385         1         0     18388         1         0     18391         1         0
     18394         1         0     18397         1         0     18400         1         0
     18403         1         0     18406         1         0     18409         1         0
     18412         1         0     18415         1         0     18418         1         0
     18421         1         0     18424         1         0     18427         1         0
     18431         1         0     18435         1         0     18438         1         0
     18441         1         0     18444         1         0     18446         1         0
     18448         1         0     18451         1         0     18454         1         0
     18456         0         0     18457         1         0     18461         1         0
     18464         1         0     18467         1         0     18469         0         0
     18470         1         0     18474         1         0     18477         1         0
     18480         1         0     18482         1         0     18486         1         0
     18489         1         0     18492         1         0     18495         1         0
     18497         1         0     18501         1         0     18505         2         0
     18512         2         0     18523         1         0     18531         1         0
     18540         1         0     18543         1         0     18546         1         0
     18548         1         0     18550         1         0     18553         1         0
     18555         1         0     18557         1         0     18560         1         0
     18562         1         0     18564         1         0     18567         1         0
     18569         1         0     18571         1         0     18574         1         0
     18577         1         0     18580         1         0     18583         1         0
     18587         1         0     18590         1         0     18593         1         0
     18596         1         0     18599         1         0     18602         1         0
     18605         1         0     18608         1         0     18611         1         0
     18614         1         0     18617         1         0     18620         1         0
     18623         1         0     18626         1         0     18629         1         0
     18632         1         0     18636         1         0     18640         1         0
     18643         1         0     18646         1         0     18649         1         0
     18651         1         0     18653         1         0     18656         1         0
     18659         1         0     18661         0         0     18662         1         0
     18666         1         0     18669         1         0     18672         1         0
     18674         0         0     18675         1         0     18679         1         0
     18682         1         0     18685         1         0     18687         1         0
     18691         1         0     18694         1         0     18697         1         0
     18700         1         0     18702         1         0     18706         1         0
     18710         2         0     18726         2         0     18737         1         0
     18741         1         0     18745         1         0     18747         1         0
     18749         1         0     18752         1         0     18755         1         0
     18758         1         0     18761         1         0     18764         1         0
     18767         1         0     18770         1         0     18773         1         0
     18776         1         0     18779         1         0     18782         1         0
     18785         1         0     18789         1         0     18794         1         0
     18797         1         0     18800         1         0     18803         1         0
     18806         1         0     18809         1         0     18812         1         0
     18814         1         0     18816         1         0     18819         1         0
     18822         1         0     18825         1         0     18828         1         0
     18831         1         0     18834         1         0     18837         1         0
     18841         2         0     18857         2         0     18868         1         0
     18876         1         0     18885         1         0     18888         1         0
     18891         1         0     18894         1         0     18897         1         0
     18900         1         0     18903         1         0     18905         1         0
     18907         1         0     18910         1         0     18912         1         0
     18914         1         0     18917         1         0     18920         1         0
     18923         1         0     18926         1         0     18930         1         0
     18933         1         0     18936         1         0     18939         1         0
     18942         1         0     18945         1         0     18948         1         0
     18951         1         0     18954         1         0     18957         1         0
     18960         1         0     18963         1         0     18966         1         0
     18969         1         0     18972         1         0     18975         1         0
     18979         2         0     18995         2         0     19006         1         0
     19014         1         0     19023         1         0     19026         1         0
     19029         1         0     19031         1         0     19033         1         0
     19036         1         0     19038         1         0     19040         1         0
     19043         1         0     19045         1         0     19047         1         0
     19050         1         0     19052         1         0     19054         1         0
     19057         1         0     19060         2         0     19063         1         0
     19066         2         0     19070         1         0     19073         1         0
     19076         1         0     19079         1         0     19082         1         0
     19085         1         0     19088         1         0     19091         1         0
     19094         1         0     19097         1         0     19100         1         0
     19103         1         0     19106         1         0     19109         1         0
     19112         1         0     19115         1         0     19119         2         0
     19125         2         0     19128         2         0     19139         1         0
     19147         1         0     19156         1         0     19159         1         0
     19162         1         0     19164         1         0     19166         1         0
     19169         1         0     19171         1         0     19173         1         0
     19176         1         0     19178         1         0     19180         1         0
     19183         1         0     19185         1         0     19187         1         0
     19190         1         0     19193         1         0     19196         1         0
     19199         1         0     19203         1         0     19206         1         0
     19209         1         0     19212         1         0     19215         1         0
     19218         1         0     19221         1         0     19224         1         0
     19227         1         0     19230         1         0     19233         1         0
     19236         1         0     19239         1         0     19242         1         0
     19245         1         0     19248         1         0     19252         1         0
     19256         1         0     19259         1         0     19262         1         0
     19265         1         0     19267         1         0     19269         1         0
     19272         1         0     19275         1         0     19277         0         0
     19278         1         0     19282         1         0     19285         1         0
     19288         1         0     19290         0         0     19291         1         0
     19295         1         0     19298         1         0     19301         1         0
     19303         1         0     19307         1         0     19310         1         0
     19313         1         0     19316         1         0     19318         1         0
     19322         1         0     19326         2         0     19333         2         0
     19344         1         0     19352         1         0     19361         1         0
     19364         1         0     19367         1         0     19370         1         0
     19373         1         0     19376         1         0     19379         1         0
     19381         1         0     19383         1         0     19386         1         0
     19389         1         0     19392         1         0     19395         1         0
     19398         1         0     19401         1         0     19404         1         0
     19408         1         0     19411         1         0     19414         1         0
     19417         1         0     19420         1         0     19423         1         0
     19426         1         0     19429         1         0     19432         1         0
     19435         1         0     19438         1         0     19441         1         0
     19444         1         0     19447         1         0     19450         1         0
     19453         1         0     19457         2         0     19463         2         0
     19466         2         0     19477         1         0     19485         1         0
     19494         1         0     19497         1         0     19500         1         0
     19502         1         0     19504         1         0     19507         1         0
     19509         1         0     19511         1         0     19514         1         0
     19516         1         0     19518         1         0     19521         1         0
     19523         1         0     19525         1         0     19528         1         0
     19531         1         0     19534         1         0     19537         1         0
     19541         1         0     19544         1         0     19547         1         0
     19550         1         0     19553         1         0     19556         1         0
     19559         1         0     19562         1         0     19565         1         0
     19568         1         0     19571         1         0     19574         1         0
     19577         1         0     19580         1         0     19583         1         0
     19586         1         0     19590         2         0     19606         2         0
     19617         1         0     19621         1         0     19625         1         0
     19627         1         0     19629         1         0     19632         1         0
     19635         1         0     19638         1         0     19641         1         0
     19644         1         0     19647         1         0     19650         1         0
     19653         1         0     19656         1         0     19659         1         0
     19662         1         0     19665         1         0     19669         1         0
     19674         1         0     19677         1         0     19680         1         0
     19683         1         0     19686         1         0     19689         1         0
     19692         1         0     19694         1         0     19696         1         0
     19699         1         0     19702         1         0     19705         1         0
     19708         1         0     19711         1         0     19714         1         0
     19717         1         0     19721         1         0     19725         1         0
     19728         1         0     19731         1         0     19734         1         0
     19736         1         0     19738         1         0     19741         1         0
     19744         1         0     19746         0         0     19747         1         0
     19751         1         0     19754         1         0     19757         1         0
     19759         0         0     19760         1         0     19764         1         0
     19767         1         0     19770         1         0     19772         1         0
     19776         1         0     19779         1         0     19782         1         0
     19785         1         0     19787         1         0     19791         1         0
     19795         1         0     19799         1         0     19802         1         0
     19805         1         0     19808         1         0     19810         1         0
     19812         1         0     19815         1         0     19818         1         0
     19820         0         0     19821         1         0     19825         1         0
     19828         1         0     19831         1         0     19833         0         0
     19834         1         0     19838         1         0     19841         1         0
     19844         1         0     19846         1         0     19850         1         0
     19853         1         0     19856         1         0     19859         1         0
     19861         1         0     19865         1         0     19869         2         0
     19885         2         0     19896         1         0     19904         1         0
     19913         1         0     19916         1         0     19919         1         0
     19921         1         0     19923         1         0     19926         1         0
     19928         1         0     19930         1         0     19933         1         0
     19935         1         0     19937         1         0     19940         1         0
     19942         1         0     19944         1         0     19947         1         0
     19950         2         0     19953         1         0     19956         2         0
     19960         1         0     19963         1         0     19966         1         0
     19969         1         0     19972         1         0     19975         1         0
     19978         1         0     19981         1         0     19984         1         0
     19987         1         0     19990         1         0     19993         1         0
     19996         1         0     19999         1         0     20002         1         0
     20005         1         0     20009         2         0     20016         2         0
     20027         1         0     20035         1         0     20044         1         0
     20047         1         0     20050         1         0     20052         1         0
     20054         1         0     20057         1         0     20059         1         0
     20061         1         0     20064         1         0     20066         1         0
     20068         1         0     20071         1         0     20073         1         0
     20075         1         0     20078         1         0     20081         1         0
     20084         1         0     20087         1         0     20091         1         0
     20094         1         0     20097         1         0     20100         1         0
     20103         1         0     20106         1         0     20109         1         0
     20112         1         0     20115         1         0     20118         1         0
     20121         1         0     20124         1         0     20127         1         0
     20130         1         0     20133         1         0     20136         1         0
     20140         2         0     20156         2         0     20167         1         0
     20171         1         0     20175         1         0     20177         1         0
     20179         1         0     20182         1         0     20185         1         0
     20188         1         0     20191         1         0     20194         1         0
     20197         1         0     20200         1         0     20203         1         0
     20206         1         0     20209         1         0     20212         1         0
     20215         1         0     20219         1         0     20224         1         0
     20227         1         0     20230         1         0     20233         1         0
     20236         1         0     20239         1         0     20242         1         0
     20244         1         0     20246         1         0     20249         1         0
     20252         1         0     20255         1         0     20258         1         0
     20261         1         0     20264         1         0     20267         1         0
     20271         2         0     20278         2         0     20289         1         0
     20297         1         0     20306         1         0     20309         1         0
     20312         1         0     20314         1         0     20316         1         0
     20319         1         0     20321         1         0     20323         1         0
     20326         1         0     20328         1         0     20330         1         0
     20333         1         0     20335         1         0     20337         1         0
     20340         1         0     20343         1         0     20346         1         0
     20349         1         0     20353         1         0     20356         1         0
     20359         1         0     20362         1         0     20365         1         0
     20368         1         0     20371         1         0     20374         1         0
     20377         1         0     20380         1         0     20383         1         0
     20386         1         0     20389         1         0     20392         1         0
     20395         1         0     20398         1         0     20402         2         0
     20418         2         0     20429         1         0     20433         1         0
     20437         1         0     20439         1         0     20441         1         0
     20444         1         0     20447         1         0     20450         1         0
     20453         1         0     20456         1         0     20459         1         0
     20462         1         0     20465         1         0     20468         1         0
     20471         1         0     20474         1         0     20477         1         0
     20481         1         0     20486         1         0     20489         1         0
     20492         1         0     20495         1         0     20498         1         0
     20501         1         0     20504         1         0     20506         1         0
     20508         1         0     20511         1         0     20514         1         0
     20517         1         0     20520         1         0     20523         1         0
     20526         1         0     20529         1         0     20533         1         0
     20537         1         0     20540         1         0     20543         1         0
     20546         1         0     20548         1         0     20550         1         0
     20553         1         0     20556         1         0     20558         0         0
     20559         1         0     20563         1         0     20566         1         0
     20569         1         0     20571         0         0     20572         1         0
     20576         1         0     20579         1         0     20582         1         0
     20584         1         0     20588         1         0     20591         1         0
     20594         1         0     20597         1         0     20599         1         0
     20603         1         0     20607         2         0     20613         2         0
     20616         2         0     20627         1         0     20635         1         0
     20644         1         0     20647         1         0     20650         1         0
     20652         1         0     20654         1         0     20657         1         0
     20659         1         0     20661         1         0     20664         1         0
     20666         1         0     20668         1         0     20671         1         0
     20673         1         0     20675         1         0     20678         1         0
     20681         1         0     20684         1         0     20687         1         0
     20691         1         0     20694         1         0     20697         1         0
     20700         1         0     20703         1         0     20706         1         0
     20709         1         0     20712         1         0     20715         1         0
     20718         1         0     20721         1         0     20724         1         0
     20727         1         0     20730         1         0     20733         1         0
     20736         1         0     20740         2         0     20747         2         0
     20758         1         0     20766         1         0     20775         1         0
     20778         1         0     20781         1         0     20784         1         0
     20787         1         0     20790         1         0     20793         1         0
     20795         1         0     20797         1         0     20800         1         0
     20803         1         0     20806         1         0     20809         1         0
     20812         1         0     20815         1         0     20818         1         0
     20822         1         0     20825         1         0     20828         1         0
     20831         1         0     20834         1         0     20837         1         0
     20840         1         0     20843         1         0     20846         1         0
     20849         1         0     20852         1         0     20855         1         0
     20858         1         0     20861         1         0     20864         1         0
     20867         1         0     20871         2         0     20887         2         0
     20898         1         0     20906         1         0     20915         1         0
     20918         1         0     20921         1         0     20923         1         0
     20925         1         0     20928         1         0     20930         1         0
     20932         1         0     20935         1         0     20937         1         0
     20939         1         0     20942         1         0     20944         1         0
     20946         1         0     20949         1         0     20952         2         0
     20955         1         0     20958         2         0     20962         1         0
     20965         1         0     20968         1         0     20971         1         0
     20974         1         0     20977         1         0     20980         1         0
     20983         1         0     20986         1         0     20989         1         0
     20992         1         0     20995         1         0     20998         1         0
     21001         1         0     21004         1         0     21007         1         0
     21011         1         0     21015         1         0     21018         1         0
     21021         1         0     21024         1         0     21026         1         0
     21028         1         0     21031         1         0     21034         1         0
     21036         0         0     21037         1         0     21041         1         0
     21044         1         0     21047         1         0     21049         0         0
     21050         1         0     21054         1         0     21057         1         0
     21060         1         0     21062         1         0     21066         1         0
     21069         1         0     21072         1         0     21075         1         0
     21077         1         0     21081         1         0     21085         2         0
     21091         2         0     21094         2         0     21105         1         0
     21113         1         0     21122         1         0     21125         1         0
     21128         1         0     21130         1         0     21132         1         0
     21135         1         0     21137         1         0     21139         1         0
     21142         1         0     21144         1         0     21146         1         0
     21149         1         0     21151         1         0     21153         1         0
     21156         1         0     21159         1         0     21162         1         0
     21165         1         0     21169         1         0     21172         1         0
     21175         1         0     21178         1         0     21181         1         0
     21184         1         0     21187         1         0     21190         1         0
     21193         1         0     21196         1         0     21199         1         0
     21202         1         0     21205         1         0     21208         1         0
     21211         1         0     21214         1         0     21218         2         0
     21234         2         0     21245         1         0     21253         1         0
     21262         1         0     21265         1         0     21268         1         0
     21270         1         0     21272         1         0     21275         1         0
     21277         1         0     21279         1         0     21282         1         0
     21284         1         0     21286         1         0     21289         1         0
     21291         1         0     21293         1         0     21296         1         0
     21299         2         0     21302         1         0     21305         2         0
     21309         1         0     21312         1         0     21315         1         0
     21318         1         0     21321         1         0     21324         1         0
     21327         1         0     21330         1         0     21333         1         0
     21336         1         0     21339         1         0     21342         1         0
     21345         1         0     21348         1         0     21351         1         0
     21354         1         0     21358         2         0     21374         2         0
     21385         1         0     21393         1         0     21402         1         0
     21405         1         0     21408         1         0     21411         1         0
     21414         1         0     21417         1         0     21420         1         0
     21422         1         0     21424         1         0     21427         1         0
     21429         1         0     21431         1         0     21434         1         0
     21437         1         0     21440         1         0     21443         1         0
     21447         1         0     21450         1         0     21453         1         0
     21456         1         0     21459         1         0     21462         1         0
     21465         1         0     21468         1         0     21471         1         0
     21474         1         0     21477         1         0     21480         1         0
     21483         1         0     21486         1         0     21489         1         0
     21492         1         0     21496         1         0     21500         1         0
     21503         1         0     21506         1         0     21509         1         0
     21511         1         0     21513         1         0     21516         1         0
     21519         1         0     21521         0         0     21522         1         0
     21526         1         0     21529         1         0     21532         1         0
     21534         0         0     21535         1         0     21539         1         0
     21542         1         0     21545         1         0     21547         1         0
     21551         1         0     21554         1         0     21557         1         0
     21560         1         0     21562         1         0     21566         1         0
     21570         1         0     21574         1         0     21577         1         0
     21580         1         0     21583         1         0     21585         1         0
     21587         1         0     21590         1         0     21593         1         0
     21595         0         0     21596         1         0     21600         1         0
     21603         1         0     21606         1         0     21608         0         0
     21609         1         0     21613         1         0     21616         1         0
     21619         1         0     21621         1         0     21625         1         0
     21628         1         0     21631         1         0     21634         1         0
     21636         1         0     21640         1         0     21644         2         0
     21660         2         0     21671         1         0     21679         1         0
     21688         1         0     21691         1         0     21694         1         0
     21697         1         0     21700         1         0     21703         1         0
     21706         1         0     21708         1         0     21710         1         0
     21713         1         0     21716         1         0     21719         1         0
     21722         1         0     21725         1         0     21728         1         0
     21731         1         0     21735         1         0     21738         1         0
     21741         1         0     21744         1         0     21747         1         0
     21750         1         0     21753         1         0     21756         1         0
     21759         1         0     21762         1         0     21765         1         0
     21768         1         0     21771         1         0     21774         1         0
     21778         2         0     21785         2         0     21796         1         0
     21804         1         0     21813         1         0     21816         1         0
     21819         1         0     21821         1         0     21823         1         0
     21826         1         0     21828         1         0     21830         1         0
     21833         1         0     21835         1         0     21837         1         0
     21840         1         0     21842         1         0     21844         1         0
     21847         1         0     21850         1         0     21853         1         0
     21856         1         0     21860         1         0     21863         1         0
     21866         1         0     21869         1         0     21872         1         0
     21875         1         0     21878         1         0     21881         1         0
     21884         1         0     21887         1         0     21890         1         0
     21893         1         0     21896         1         0     21899         1         0
     21902         1         0     21905         1         0     21909         2         0
     21925         2         0     21936         1         0     21944         1         0
     21953         1         0     21956         1         0     21959         1         0
     21961         1         0     21963         1         0     21966         1         0
     21968         1         0     21970         1         0     21973         1         0
     21975         1         0     21977         1         0     21980         1         0
     21982         1         0     21984         1         0     21987         1         0
     21990         2         0     21993         1         0     21996         2         0
     22000         1         0     22003         1         0     22006         1         0
     22009         1         0     22012         1         0     22015         1         0
     22018         1         0     22021         1         0     22024         1         0
     22027         1         0     22030         1         0     22033         1         0
     22036         1         0     22039         1         0     22042         1         0
     22045         1         0     22049         2         0     22065         2         0
     22076         1         0     22084         1         0     22093         1         0
     22096         1         0     22099         1         0     22102         1         0
     22105         1         0     22108         1         0     22111         1         0
     22113         1         0     22115         1         0     22118         1         0
     22120         1         0     22122         1         0     22125         1         0
     22128         1         0     22131         1         0     22134         1         0
     22138         1         0     22141         1         0     22144         1         0
     22147         1         0     22150         1         0     22153         1         0
     22156         1         0     22159         1         0     22162         1         0
     22165         1         0     22168         1         0     22171         1         0
     22174         1         0     22177         1         0     22180         1         0
     22183         1         0     22187         2         0     22193         2         0
     22196         2         0     22207         1         0     22215         1         0
     22224         1         0     22227         1         0     22230         1         0
     22232         1         0     22234         1         0     22237         1         0
     22239         1         0     22241         1         0     22244         1         0
     22246         1         0     22248         1         0     22251         1         0
     22253         1         0     22255         1         0     22258         1         0
     22261         1         0     22264         1         0     22267         1         0
     22271         1         0     22274         1         0     22277         1         0
     22280         1         0     22283         1         0     22286         1         0
     22289         1         0     22292         1         0     22295         1         0
     22298         1         0     22301         1         0     22304         1         0
     22307         1         0     22310         1         0     22313         1         0
     22316         1         0

         0         0 !NUMLP NUMLPH

         0 !NCRTERM: cross-terms

