* GENERATED BY CHARMM-GUI (HTTP://WWW.CHARMM-GUI.ORG) V3.7 ON FEB, 18. 2025. JOB
* GENERATES ION CONFORMATION USING MONTE-CARLO SIMULATION
*  DATE:     2/18/25     11: 3: 4      CREATED BY USER: charmm-gui
*
       126  EXT
         1         1  SOD       SOD             3.4779704300        4.7751786600       54.1631301000  IONS      1               1.0000000000
         2         2  SOD       SOD            17.7587047000       31.8892499000      -73.1660429000  IONS      2               1.0000000000
         3         3  SOD       SOD            -9.1700364800      -36.6383588000       25.4022995000  IONS      3               1.0000000000
         4         4  SOD       SOD            18.4212424000      -19.1823444000       70.6268304000  IONS      4               1.0000000000
         5         5  SOD       SOD            20.9199017000        2.5892592400      -44.6000661000  IONS      5               1.0000000000
         6         6  SOD       SOD           -15.8326663000       16.8126599000       39.3689019000  IONS      6               1.0000000000
         7         7  SOD       SOD            21.7027350599        5.8637827564      -25.5107996709  IONS      7               1.0000000000
         8         8  SOD       SOD           -28.2348679000       -0.6682600210      -72.8109931000  IONS      8               1.0000000000
         9         9  SOD       SOD            35.9969852000      -23.2066636000      -68.7288674000  IONS      9               1.0000000000
        10        10  SOD       SOD            13.7656879000      -35.1786651000      -26.1782883000  IONS      10              1.0000000000
        11        11  SOD       SOD           -12.0634443000       14.9827138000       31.1737560000  IONS      11              1.0000000000
        12        12  SOD       SOD           -22.9704019000       30.9525564000      -62.0987954000  IONS      12              1.0000000000
        13        13  SOD       SOD           -23.5697775000        5.8116000500      -33.7492126000  IONS      13              1.0000000000
        14        14  SOD       SOD           -33.3203142000      -27.4408108000      -45.2055538000  IONS      14              1.0000000000
        15        15  SOD       SOD             6.5161484423       22.9306799791      -61.7787181340  IONS      15              1.0000000000
        16        16  SOD       SOD            21.2690092000       26.1594818000       39.4344070000  IONS      16              1.0000000000
        17        17  SOD       SOD            30.2065666000       23.8584071000      -45.7583869000  IONS      17              1.0000000000
        18        18  SOD       SOD            -5.8380033100       -2.5320737200       79.2308250000  IONS      18              1.0000000000
        19        19  SOD       SOD           -31.5904224000       -7.2653774500      -60.6829120000  IONS      19              1.0000000000
        20        20  SOD       SOD             8.9256434900      -36.5065324000      -59.9892646000  IONS      20              1.0000000000
        21        21  SOD       SOD           -25.1516696000       14.5963949000      -70.3985926000  IONS      21              1.0000000000
        22        22  SOD       SOD            14.8790377000      -33.4186925000       41.9100406000  IONS      22              1.0000000000
        23        23  SOD       SOD            28.9467949000      -21.5420432000      -67.7059846000  IONS      23              1.0000000000
        24        24  SOD       SOD             2.7449292000       13.9975501000      -47.3771906000  IONS      24              1.0000000000
        25        25  SOD       SOD            24.1591430000       12.1901108000       40.7275435000  IONS      25              1.0000000000
        26        26  SOD       SOD           -34.6535134000       28.3742440000       76.1429888000  IONS      26              1.0000000000
        27        27  SOD       SOD            22.5533693000       20.4271631000       50.0449251000  IONS      27              1.0000000000
        28        28  SOD       SOD            24.7354005000       33.8439726000      -57.9360656000  IONS      28              1.0000000000
        29        29  SOD       SOD            20.9941533000       35.3947595000      -60.1445118000  IONS      29              1.0000000000
        30        30  SOD       SOD            -7.3079825800      -29.8308949000       22.9098826000  IONS      30              1.0000000000
        31        31  SOD       SOD             6.5063300700       17.7832768000      -47.2447878000  IONS      31              1.0000000000
        32        32  SOD       SOD            27.0029744000       -6.3817762800       47.9353794000  IONS      32              1.0000000000
        33        33  SOD       SOD            22.0980687000      -30.1534066000      -55.5997794000  IONS      33              1.0000000000
        34        34  SOD       SOD           -18.2488663000      -20.4059845000      -45.9753978000  IONS      34              1.0000000000
        35        35  SOD       SOD            -6.9236540700        7.1353434000      -46.6732653000  IONS      35              1.0000000000
        36        36  SOD       SOD           -14.1550368000      -12.3350760000       43.0861387000  IONS      36              1.0000000000
        37        37  SOD       SOD            13.0718855000       29.2207376000       62.3622051000  IONS      37              1.0000000000
        38        38  SOD       SOD             7.8054430200        5.7990969800      -30.2359645000  IONS      38              1.0000000000
        39        39  SOD       SOD             6.9144438800      -32.2747136000       70.2885229000  IONS      39              1.0000000000
        40        40  SOD       SOD           -35.1729491000        3.2485141300      -69.6332918000  IONS      40              1.0000000000
        41        41  SOD       SOD             1.5980830500       18.9991525000      -33.9008594000  IONS      41              1.0000000000
        42        42  SOD       SOD           -32.4763789000      -30.9627712000       75.7642160000  IONS      42              1.0000000000
        43        43  SOD       SOD             8.6928888372        7.8702655517      -46.8954615880  IONS      43              1.0000000000
        44        44  SOD       SOD            -0.9609720090       -1.2975122500      -73.9620719000  IONS      44              1.0000000000
        45        45  SOD       SOD           -27.2223782903       21.8825987977       31.5877770004  IONS      45              1.0000000000
        46        46  SOD       SOD            -9.4760520700       -0.5001560060      -41.8027733000  IONS      46              1.0000000000
        47        47  SOD       SOD            -5.2150218900      -17.4567420000       49.4410048000  IONS      47              1.0000000000
        48        48  SOD       SOD             7.6849115810       -9.0492427223       29.6371844969  IONS      48              1.0000000000
        49        49  SOD       SOD             7.1928772100      -27.8320389000      -38.7654458000  IONS      49              1.0000000000
        50        50  SOD       SOD            13.6775762000       32.4955715000       45.7373278000  IONS      50              1.0000000000
        51        51  SOD       SOD             5.5459473700      -17.0542580000      -45.2169941000  IONS      51              1.0000000000
        52        52  SOD       SOD            20.5361056000       34.5384970000       79.4341194000  IONS      52              1.0000000000
        53        53  SOD       SOD             1.1603405700       22.0266914000       30.2888264000  IONS      53              1.0000000000
        54        54  SOD       SOD            11.0127428000       36.2014212000      -58.6599707000  IONS      54              1.0000000000
        55        55  SOD       SOD           -15.2904771000       -0.7764498350      -43.1929973000  IONS      55              1.0000000000
        56        56  SOD       SOD           -34.9632347000      -29.5958793000      -41.8604269000  IONS      56              1.0000000000
        57        57  SOD       SOD           -23.8005501000        1.3450419500       29.8455702000  IONS      57              1.0000000000
        58        58  SOD       SOD           -35.1090099000      -27.9381023000      -65.1299884000  IONS      58              1.0000000000
        59        59  SOD       SOD             2.4666890900       33.9981647000       43.9165414000  IONS      59              1.0000000000
        60        60  SOD       SOD            -6.1370979200       11.9719583000       64.8237894000  IONS      60              1.0000000000
        61        61  SOD       SOD            -5.0630568952        3.7154262164       36.5648858940  IONS      61              1.0000000000
        62        62  SOD       SOD            21.9272173000        5.9107505900       27.7796443000  IONS      62              1.0000000000
        63        63  SOD       SOD            10.2698167000      -29.9532586000       30.4360576000  IONS      63              1.0000000000
        64        64  SOD       SOD            36.4277040000       32.1495701000      -26.1542354000  IONS      64              1.0000000000
        65        65  SOD       SOD             5.9247998080        1.8903961212       47.2224926096  IONS      65              1.0000000000
        66        66  SOD       SOD            30.8544643000       19.1772883000      -43.3432950000  IONS      66              1.0000000000
        67        67  SOD       SOD           -20.3798509000       -0.5728960170       38.4558275000  IONS      67              1.0000000000
        68        68  SOD       SOD            22.7267963000      -31.9889340000       30.8584971000  IONS      68              1.0000000000
        69        69  SOD       SOD             9.2600015000       20.2069226000       44.7797347000  IONS      69              1.0000000000
        70        70  SOD       SOD            14.9630473000       26.3168954000       54.5614147000  IONS      70              1.0000000000
        71        71  SOD       SOD            22.6656316000        6.2983020900       59.1089542000  IONS      71              1.0000000000
        72        72  SOD       SOD           -13.6069398000       -1.4873659400       73.6106595000  IONS      72              1.0000000000
        73        73  SOD       SOD            -1.1481565441      -35.0504343966       69.0434882884  IONS      73              1.0000000000
        74        74  CLA       CLA            26.1536008000      -22.4682007000      -76.5150446000  IONS      74             -1.0000000000
        75        75  CLA       CLA           -24.2905389000       31.7020803000      -43.9877722000  IONS      75             -1.0000000000
        76        76  CLA       CLA           -16.2153536000        9.0142831200       62.9005810000  IONS      76             -1.0000000000
        77        77  CLA       CLA            19.8824769000       16.0359708000      -55.0749200000  IONS      77             -1.0000000000
        78        78  CLA       CLA             8.8031689300       35.8952820000       78.9943155000  IONS      78             -1.0000000000
        79        79  CLA       CLA           -31.3440256000       21.7348969000      -71.3117327000  IONS      79             -1.0000000000
        80        80  CLA       CLA             6.5422810800        5.3963123400       27.7358715000  IONS      80             -1.0000000000
        81        81  CLA       CLA           -34.8070687000        6.9541459000      -25.2451397000  IONS      81             -1.0000000000
        82        82  CLA       CLA            15.0428295000       21.6403012000      -72.7424838000  IONS      82             -1.0000000000
        83        83  CLA       CLA           -29.5870353000      -35.4907327000      -39.6283216000  IONS      83             -1.0000000000
        84        84  CLA       CLA           -33.2234333000       26.6583725000      -74.8968676000  IONS      84             -1.0000000000
        85        85  CLA       CLA           -35.0645699000      -26.2569135000      -53.0519046000  IONS      85             -1.0000000000
        86        86  CLA       CLA            27.2725358000       22.1309006000       57.1127362000  IONS      86             -1.0000000000
        87        87  CLA       CLA            11.6126111000       27.9928048000      -42.1137456000  IONS      87             -1.0000000000
        88        88  CLA       CLA             8.6812512400        2.4739749600       40.6353675000  IONS      88             -1.0000000000
        89        89  CLA       CLA             0.6016241161       19.4239791910       50.0284200119  IONS      89             -1.0000000000
        90        90  CLA       CLA            30.8231258758        5.1845707020       44.9878117181  IONS      90             -1.0000000000
        91        91  CLA       CLA           -32.7882811000       -6.3264853400      -26.3920190000  IONS      91             -1.0000000000
        92        92  CLA       CLA           -14.6758291000       30.4945026000       79.4509670000  IONS      92             -1.0000000000
        93        93  CLA       CLA            26.1119340000       34.0161921000      -43.7929419000  IONS      93             -1.0000000000
        94        94  CLA       CLA             7.0476169300       -0.3776160330       61.9278493000  IONS      94             -1.0000000000
        95        95  CLA       CLA            -6.4127875833       20.1200828220       41.5014490118  IONS      95             -1.0000000000
        96        96  CLA       CLA           -14.8939743000        8.1601148900       39.5600934000  IONS      96             -1.0000000000
        97        97  CLA       CLA            34.7814659000      -32.3208004000      -25.0328602000  IONS      97             -1.0000000000
        98        98  CLA       CLA            23.3136183000       -7.6828681000      -56.0885731000  IONS      98             -1.0000000000
        99        99  CLA       CLA             0.2966975560       -4.7959290600      -75.8504137000  IONS      99             -1.0000000000
       100       100  CLA       CLA            21.5559371000       -5.9754947200       33.5218078000  IONS      100            -1.0000000000
       101       101  CLA       CLA           -29.5908400000      -35.6159579000       46.6038027000  IONS      101            -1.0000000000
       102       102  CLA       CLA           -15.7987191000      -31.2960906000       50.2743778000  IONS      102            -1.0000000000
       103       103  CLA       CLA             3.1253805132       -5.7140615278      -49.2296281946  IONS      103            -1.0000000000
       104       104  CLA       CLA           -15.2239581000       -9.6488768500       73.1645774000  IONS      104            -1.0000000000
       105       105  CLA       CLA            15.1914393000      -16.4982113000      -47.1592026000  IONS      105            -1.0000000000
       106       106  CLA       CLA             5.0983984083       11.9620499999      -54.3441186989  IONS      106            -1.0000000000
       107       107  CLA       CLA           -24.2961033000       26.6665898000      -62.6490832000  IONS      107            -1.0000000000
       108       108  CLA       CLA            11.4564036000      -21.2348461000      -72.0222488000  IONS      108            -1.0000000000
       109       109  CLA       CLA             0.5723708680        8.9734982800      -69.5134750000  IONS      109            -1.0000000000
       110       110  CLA       CLA           -35.9158353000       14.9163836000      -55.2001635000  IONS      110            -1.0000000000
       111       111  CLA       CLA            -3.4889994400       -0.8773668520      -51.1718794000  IONS      111            -1.0000000000
       112       112  CLA       CLA             6.5489093600        5.2583468700      -60.5620560000  IONS      112            -1.0000000000
       113       113  CLA       CLA            17.3087056000        3.3781495200      -79.7502925000  IONS      113            -1.0000000000
       114       114  CLA       CLA             1.3539451100       25.1141865000       26.3665880000  IONS      114            -1.0000000000
       115       115  CLA       CLA            30.5672722000       12.8551222000       63.3064866000  IONS      115            -1.0000000000
       116       116  CLA       CLA            19.1891873000      -28.7522149000      -62.2192560000  IONS      116            -1.0000000000
       117       117  CLA       CLA            -0.7027858020       11.8848077000       34.5662094000  IONS      117            -1.0000000000
       118       118  CLA       CLA             0.3607447470        7.2507329600      -35.3202842000  IONS      118            -1.0000000000
       119       119  CLA       CLA           -14.8789832000       -2.4943029200      -24.4927662000  IONS      119            -1.0000000000
       120       120  CLA       CLA            29.0641732000       20.9893909000      -48.3601778000  IONS      120            -1.0000000000
       121       121  CLA       CLA             0.6382277050       12.5715951000       29.5577886000  IONS      121            -1.0000000000
       122       122  CLA       CLA            32.5173699000       32.3766988000       30.0892045000  IONS      122            -1.0000000000
       123       123  CLA       CLA            34.6814678000      -17.0506807000       69.3552194000  IONS      123            -1.0000000000
       124       124  CLA       CLA           -20.7010145000       33.1695002000       62.6486355000  IONS      124            -1.0000000000
       125       125  CLA       CLA           -28.9292529000       35.0266851000       35.0143256000  IONS      125            -1.0000000000
       126       126  CLA       CLA             6.8668757800      -23.6399716000       72.9737552000  IONS      126            -1.0000000000
