* GENERATED BY CHARMM-GUI (HTTP://WWW.CHARMM-GUI.ORG) V3.7 ON FEB, 18. 2025. JOB
* GET A DIFFERENT CONFORMATION FOR LIPIDS PENETRATING PROTEIN / CHOL
*  DATE:     2/18/25     10:57:52      CREATED BY USER: charmm-gui
*
       330  EXT
         1         1  TIP3      OH2            -1.0227147659        8.4395627413       19.9629000000  TIP3      1               0.0000000000
         2         1  TIP3      H1             -1.4375150233        7.9434258221       20.6686100000  TIP3      1               0.0000000000
         3         1  TIP3      H2             -0.4751922631        9.0835955022       20.4119900000  TIP3      1               0.0000000000
         4         2  TIP3      OH2             2.4889073423        8.5345955030       20.9078000000  TIP3      2               0.0000000000
         5         2  TIP3      H1              1.9168465292        9.3005121725       20.9564600000  TIP3      2               0.0000000000
         6         2  TIP3      H2              2.1284594016        8.0109402068       20.1921900000  TIP3      2               0.0000000000
         7         3  TIP3      OH2            -6.8852340407        5.0328185949       20.0540100000  TIP3      3               0.0000000000
         8         3  TIP3      H1             -6.9583272450        4.1790514840       20.4806000000  TIP3      3               0.0000000000
         9         3  TIP3      H2             -7.4233918658        5.6156129184       20.5897000000  TIP3      3               0.0000000000
        10         4  TIP3      OH2             8.9003924515       11.5554428859       19.5649200000  TIP3      4               0.0000000000
        11         4  TIP3      H1              9.5227977494       11.6626081075       20.2842000000  TIP3      4               0.0000000000
        12         4  TIP3      H2              8.0518705655       11.7810091475       19.9461800000  TIP3      4               0.0000000000
        13         5  TIP3      OH2            14.0563871567        5.1804145017       19.9993250000  TIP3      5               0.0000000000
        14         5  TIP3      H1             14.1174072496        6.0954307009       19.7249950000  TIP3      5               0.0000000000
        15         5  TIP3      H2             13.1398710127        5.0658072999       20.2505350000  TIP3      5               0.0000000000
        16         6  TIP3      OH2            16.2083440195        0.4636065644       20.0007350000  TIP3      6               0.0000000000
        17         6  TIP3      H1             17.1086116282        0.7886717651       19.9912950000  TIP3      6               0.0000000000
        18         6  TIP3      H2             15.6751512748        1.2272170078       19.7797450000  TIP3      6               0.0000000000
        19         7  TIP3      OH2           -11.7384289661        6.2801213531       20.5425600000  TIP3      7               0.0000000000
        20         7  TIP3      H1            -11.5955361403        7.1914940992       20.7979100000  TIP3      7               0.0000000000
        21         7  TIP3      H2            -12.4672338511        6.3159146126       19.9230500000  TIP3      7               0.0000000000
        22         8  TIP3      OH2           -14.5814497290        5.1560827136       21.7480100000  TIP3      8               0.0000000000
        23         8  TIP3      H1            -14.3896434438        5.7596085849       22.4657900000  TIP3      8               0.0000000000
        24         8  TIP3      H2            -14.0052472473        5.4375089380       21.0373700000  TIP3      8               0.0000000000
        25         9  TIP3      OH2           -14.4623353682        8.2985016470       20.6219200000  TIP3      9               0.0000000000
        26         9  TIP3      H1            -15.3746479665        8.4379744030       20.3680300000  TIP3      9               0.0000000000
        27         9  TIP3      H2            -14.3709121263        8.7634462327       21.4536100000  TIP3      9               0.0000000000
        28        10  TIP3      OH2            10.4265584605      -12.5972415497       19.8488700000  TIP3      10              0.0000000000
        29        10  TIP3      H1              9.7483821734      -12.7080534866       19.1825200000  TIP3      10              0.0000000000
        30        10  TIP3      H2             10.2941757708      -11.7091798528       20.1806400000  TIP3      10              0.0000000000
        31        11  TIP3      OH2             5.9083359173      -14.2885441264       20.9994500000  TIP3      11              0.0000000000
        32        11  TIP3      H1              6.4219940428      -14.2092811832       20.1956500000  TIP3      11              0.0000000000
        33        11  TIP3      H2              5.1106818237      -13.7890740521       20.8247500000  TIP3      11              0.0000000000
        34        12  TIP3      OH2             7.8993549369      -10.8009252928       18.9372500000  TIP3      12              0.0000000000
        35        12  TIP3      H1              8.4481788439      -10.3964841219       19.6091500000  TIP3      12              0.0000000000
        36        12  TIP3      H2              7.6211698235      -10.0713991467       18.3834900000  TIP3      12              0.0000000000
        37        13  TIP3      OH2             5.3148915012       18.3767288345       19.3343400000  TIP3      13              0.0000000000
        38        13  TIP3      H1              6.0958856165       18.8007864653       18.9787400000  TIP3      13              0.0000000000
        39        13  TIP3      H2              5.2359376831       17.5629880414       18.8365400000  TIP3      13              0.0000000000
        40        14  TIP3      OH2            17.8150219774        8.4838165887       21.0987400000  TIP3      14              0.0000000000
        41        14  TIP3      H1             18.4259816527        7.7881435997       21.3416400000  TIP3      14              0.0000000000
        42        14  TIP3      H2             17.6721012394        8.3608514898       20.1602900000  TIP3      14              0.0000000000
        43        15  TIP3      OH2            15.1110261568        7.3209875744       19.9435400000  TIP3      15              0.0000000000
        44        15  TIP3      H1             15.2581524034        6.8295412559       20.7516700000  TIP3      15              0.0000000000
        45        15  TIP3      H2             15.2082852746        6.6718660861       19.2468300000  TIP3      15              0.0000000000
        46        16  TIP3      OH2            18.2860208516        6.3731499090       18.7506300000  TIP3      16              0.0000000000
        47        16  TIP3      H1             19.1079871192        6.1583082797       19.1915900000  TIP3      16              0.0000000000
        48        16  TIP3      H2             17.6413114754        5.7859910062       19.1453800000  TIP3      16              0.0000000000
        49        17  TIP3      OH2             7.3183719166      -20.6594503477       19.9594300000  TIP3      17              0.0000000000
        50        17  TIP3      H1              6.7288346244      -21.3046889172       19.5691300000  TIP3      17              0.0000000000
        51        17  TIP3      H2              7.3261427061      -19.9333145127       19.3358100000  TIP3      17              0.0000000000
        52        18  TIP3      OH2             4.5619299793      -18.3617360427       19.6954400000  TIP3      18              0.0000000000
        53        18  TIP3      H1              5.1596641319      -17.7753630920       20.1592500000  TIP3      18              0.0000000000
        54        18  TIP3      H2              4.3301051094      -19.0285097228       20.3419100000  TIP3      18              0.0000000000
        55        19  TIP3      OH2           -23.0397435809       -3.8525343175       19.6767600000  TIP3      19              0.0000000000
        56        19  TIP3      H1            -23.5566252629       -3.1335947107       19.3131800000  TIP3      19              0.0000000000
        57        19  TIP3      H2            -23.5659792168       -4.6345761128       19.5103000000  TIP3      19              0.0000000000
        58        20  TIP3      OH2           -24.0639606946        0.5080358020       19.4397900000  TIP3      20              0.0000000000
        59        20  TIP3      H1            -24.4566119959        0.8928088121       20.2233800000  TIP3      20              0.0000000000
        60        20  TIP3      H2            -23.1514901029        0.7963254010       19.4622900000  TIP3      20              0.0000000000
        61        21  TIP3      OH2           -13.5127654064       22.7691019429       20.8472200000  TIP3      21              0.0000000000
        62        21  TIP3      H1            -13.8999762565       23.5478470448       21.2470300000  TIP3      21              0.0000000000
        63        21  TIP3      H2            -12.5904395492       22.9947637441       20.7263600000  TIP3      21              0.0000000000
        64        22  TIP3      OH2           -14.1792551347       18.3094119339       19.1273800000  TIP3      22              0.0000000000
        65        22  TIP3      H1            -13.3882904550       18.7050513852       19.4935400000  TIP3      22              0.0000000000
        66        22  TIP3      H2            -14.6702651509       19.0465001811       18.7642600000  TIP3      22              0.0000000000
        67        23  TIP3      OH2           -14.6382502076       20.3812910352       21.8068000000  TIP3      23              0.0000000000
        68        23  TIP3      H1            -13.9840741187       21.0454227514       21.5895000000  TIP3      23              0.0000000000
        69        23  TIP3      H2            -15.2386786086       20.3829255722       21.0613400000  TIP3      23              0.0000000000
        70        24  TIP3      OH2            24.2061544103      -14.5357419575       19.8620000000  TIP3      24              0.0000000000
        71        24  TIP3      H1             24.6835053472      -14.4594326609       20.6881700000  TIP3      24              0.0000000000
        72        24  TIP3      H2             24.4349684636      -15.4046371658       19.5320100000  TIP3      24              0.0000000000
        73        25  TIP3      OH2            21.5694570443      -10.3202935852       19.6328900000  TIP3      25            -36.6800000000
        74        25  TIP3      H1             22.3049752359      -10.9125887619       19.4766000000  TIP3      25            -36.8500000000
        75        25  TIP3      H2             21.0494137862      -10.3665470902       18.8306200000  TIP3      25            -36.6400000000
        76        26  TIP3      OH2            26.7551240914       -5.8156746411       21.1534750000  TIP3      26              0.0000000000
        77        26  TIP3      H1             26.2801695161       -5.0096023875       21.3557050000  TIP3      26              0.0000000000
        78        26  TIP3      H2             26.1705232987       -6.2985397501       20.5692650000  TIP3      26              0.0000000000
        79        27  TIP3      OH2            23.2704955618       -3.5759417934       19.2898750000  TIP3      27              0.0000000000
        80        27  TIP3      H1             24.0745923272       -3.9122020653       18.8941650000  TIP3      27              0.0000000000
        81        27  TIP3      H2             22.9021084862       -4.3249881729       19.7583250000  TIP3      27              0.0000000000
        82        28  TIP3      OH2            24.9779747413       -3.3980898656       21.4923850000  TIP3      28              0.0000000000
        83        28  TIP3      H1             24.8433165011       -3.4930645398       20.5494750000  TIP3      28              0.0000000000
        84        28  TIP3      H2             24.4088460052       -2.6707686148       21.7440250000  TIP3      28              0.0000000000
        85        29  TIP3      OH2            28.7252742888        5.1272533850       21.4480850000  TIP3      29              0.0000000000
        86        29  TIP3      H1             28.3591898092        5.3409459581       20.5898550000  TIP3      29              0.0000000000
        87        29  TIP3      H2             27.9870268812        5.2112271943       22.0515550000  TIP3      29              0.0000000000
        88        30  TIP3      OH2            27.8295520045        2.2658106235       18.9099250000  TIP3      30              0.0000000000
        89        30  TIP3      H1             27.1485158235        2.1952591088       19.5788350000  TIP3      30              0.0000000000
        90        30  TIP3      H2             28.4272447277        1.5423844996       19.0987450000  TIP3      30              0.0000000000
        91        31  TIP3      OH2            27.3850314084        6.9724393282       19.0528150000  TIP3      31              0.0000000000
        92        31  TIP3      H1             27.8182623745        7.8185566060       18.9404350000  TIP3      31              0.0000000000
        93        31  TIP3      H2             27.0784472840        6.7414560014       18.1759550000  TIP3      31              0.0000000000
        94        32  TIP3      OH2            30.6934808612        7.5877249641       19.1708050000  TIP3      32              0.0000000000
        95        32  TIP3      H1             30.6298339162        6.6345605914       19.2312350000  TIP3      32              0.0000000000
        96        32  TIP3      H2             31.3792370115        7.8225673683       19.7959750000  TIP3      32              0.0000000000
        97        33  TIP3      OH2             9.2900652160      -29.7460833589       20.8914250000  TIP3      33              0.0000000000
        98        33  TIP3      H1             10.2428426336      -29.6567839980       20.8693650000  TIP3      33              0.0000000000
        99        33  TIP3      H2              8.9853333987      -29.2556329675       20.1279950000  TIP3      33              0.0000000000
       100        34  TIP3      OH2            10.7815977886      -26.6532213299       20.5845850000  TIP3      34              0.0000000000
       101        34  TIP3      H1             10.6565950914      -25.8581892763       21.1027850000  TIP3      34              0.0000000000
       102        34  TIP3      H2             11.6993856685      -26.8876168666       20.7223050000  TIP3      34              0.0000000000
       103        35  TIP3      OH2           -31.2446715882        5.3754836903       20.1789500000  TIP3      35              0.0000000000
       104        35  TIP3      H1            -31.2564405514        6.3127705196       20.3727800000  TIP3      35              0.0000000000
       105        35  TIP3      H2            -31.8394094368        4.9898905726       20.8222500000  TIP3      35              0.0000000000
       106        36  TIP3      OH2           -20.0209043887      -21.8462098832       20.2270100000  TIP3      36            -37.7400000000
       107        36  TIP3      H1            -19.5025466042      -22.4655125376       19.7131900000  TIP3      36            -37.6000000000
       108        36  TIP3      H2            -20.1876006011      -22.3001793034       21.0530700000  TIP3      36            -38.6900000000
       109        37  TIP3      OH2           -21.0199479142      -25.6578831676       19.3699600000  TIP3      37              0.0000000000
       110        37  TIP3      H1            -20.5219038036      -26.4645110139       19.2375200000  TIP3      37              0.0000000000
       111        37  TIP3      H2            -20.3534947677      -24.9798610514       19.4811400000  TIP3      37              0.0000000000
       112        38  TIP3      OH2           -16.0036842708      -24.5294857157       19.5835200000  TIP3      38              0.0000000000
       113        38  TIP3      H1            -15.4811782170      -23.9314050950       20.1178500000  TIP3      38              0.0000000000
       114        38  TIP3      H2            -15.3583274180      -25.0626714503       19.1193400000  TIP3      38              0.0000000000
       115        39  TIP3      OH2            -7.0723671325      -31.9868013727       21.1424900000  TIP3      39              0.0000000000
       116        39  TIP3      H1             -6.8652238899      -31.3472177485       20.4611400000  TIP3      39              0.0000000000
       117        39  TIP3      H2             -8.0236024640      -31.9372319374       21.2369800000  TIP3      39              0.0000000000
       118        40  TIP3      OH2            -3.6294369930      -30.4195801937       19.9701000000  TIP3      40              0.0000000000
       119        40  TIP3      H1             -3.5039753579      -31.3528036453       20.1421200000  TIP3      40              0.0000000000
       120        40  TIP3      H2             -3.0291828976      -29.9815174403       20.5734500000  TIP3      40              0.0000000000
       121        41  TIP3      OH2           -25.3616509904       18.3070504725       20.1484100000  TIP3      41              0.0000000000
       122        41  TIP3      H1            -26.2003692922       18.7261647252       20.3411100000  TIP3      41              0.0000000000
       123        41  TIP3      H2            -25.2577054204       17.6503616505       20.8370300000  TIP3      41              0.0000000000
       124        42  TIP3      OH2           -22.1901547624       21.7477986319       19.0467100000  TIP3      42              0.0000000000
       125        42  TIP3      H1            -21.3212675069       21.4851360316       19.3504800000  TIP3      42              0.0000000000
       126        42  TIP3      H2            -22.5583386390       20.9544948849       18.6576900000  TIP3      42              0.0000000000
       127        43  TIP3      OH2            33.2668899129       -1.9345024648       20.8331750000  TIP3      43              0.0000000000
       128        43  TIP3      H1             34.0674964421       -1.5324712094       21.1702550000  TIP3      43              0.0000000000
       129        43  TIP3      H2             32.6671622858       -1.9370701278       21.5791850000  TIP3      43              0.0000000000
       130        44  TIP3      OH2            31.8001387799       -5.9676238869       20.4714850000  TIP3      44              0.0000000000
       131        44  TIP3      H1             32.2708086632       -5.3732782561       19.8871450000  TIP3      44              0.0000000000
       132        44  TIP3      H2             32.1834257085       -5.8094374016       21.3342150000  TIP3      44              0.0000000000
       133        45  TIP3      OH2           -20.7168865365       29.0331201100       20.8771700000  TIP3      45              0.0000000000
       134        45  TIP3      H1            -20.4057362928       28.6842240914       20.0419000000  TIP3      45              0.0000000000
       135        45  TIP3      H2            -20.6573118855       28.2944038076       21.4829500000  TIP3      45              0.0000000000
       136        46  TIP3      OH2           -32.3376546146       10.5401937815       20.2922850000  TIP3      46              0.0000000000
       137        46  TIP3      H1            -31.4581382240       10.7909697925       20.5747550000  TIP3      46              0.0000000000
       138        46  TIP3      H2            -32.5852605968        9.8281700515       20.8821450000  TIP3      46              0.0000000000
       139        47  TIP3      OH2           -36.4261543167       12.3794346691       19.9524950000  TIP3      47              0.0000000000
       140        47  TIP3      H1            -35.7172431216       12.4074092395       19.3099250000  TIP3      47              0.0000000000
       141        47  TIP3      H2            -36.8311961423       11.5214563343       19.8257750000  TIP3      47              0.0000000000
       142        48  TIP3      OH2           -12.1636614819       36.8262324006       19.7184900000  TIP3      48              0.0000000000
       143        48  TIP3      H1            -11.7732482330       37.1752995339       20.5197200000  TIP3      48              0.0000000000
       144        48  TIP3      H2            -13.0861626786       36.6958642328       19.9380800000  TIP3      48              0.0000000000
       145        49  TIP3      OH2            -8.0306457005       33.7321705869       19.1976300000  TIP3      49              0.0000000000
       146        49  TIP3      H1             -7.7075100113       34.0426651384       20.0434500000  TIP3      49              0.0000000000
       147        49  TIP3      H2             -8.3671254864       34.5176174596       18.7662600000  TIP3      49              0.0000000000
       148        50  TIP3      OH2            -7.2357097562       37.6034524083       19.7646000000  TIP3      50              0.0000000000
       149        50  TIP3      H1             -7.3549046312       37.3740103262       20.6862200000  TIP3      50              0.0000000000
       150        50  TIP3      H2             -8.0664607773       37.3707067661       19.3499700000  TIP3      50              0.0000000000
       151        51  TIP3      OH2            -8.8252340441       37.0414444900       21.9441000000  TIP3      51              0.0000000000
       152        51  TIP3      H1             -9.6983601211       37.3893533334       22.1253000000  TIP3      51              0.0000000000
       153        51  TIP3      H2             -8.8556364915       36.1391629446       22.2621900000  TIP3      51              0.0000000000
       154        52  TIP3      OH2            24.9545309030       30.5567619658       21.3905150000  TIP3      52              0.0000000000
       155        52  TIP3      H1             25.6329885977       30.6511173361       22.0591050000  TIP3      52              0.0000000000
       156        52  TIP3      H2             24.7780902656       31.4514886405       21.0997150000  TIP3      52              0.0000000000
       157        53  TIP3      OH2           -32.0902146310      -31.9074559901       19.2399550000  TIP3      53              0.0000000000
       158        53  TIP3      H1            -32.4244662450      -32.7478710427       18.9265750000  TIP3      53              0.0000000000
       159        53  TIP3      H2            -31.1769438761      -31.8906421727       18.9538050000  TIP3      53              0.0000000000
       160        54  TIP3      OH2           -27.0425283136      -32.2736384469       20.1295750000  TIP3      54              0.0000000000
       161        54  TIP3      H1            -26.7198209774      -31.4013795228       20.3559650000  TIP3      54              0.0000000000
       162        54  TIP3      H2            -27.0292543826      -32.7564028110       20.9560050000  TIP3      54              0.0000000000
       163        55  TIP3      OH2           -27.5825391396      -29.5168584078       18.6422450000  TIP3      55              0.0000000000
       164        55  TIP3      H1            -26.9767528191      -28.7761763229       18.6675850000  TIP3      55              0.0000000000
       165        55  TIP3      H2            -27.7680054318      -29.6434769414       17.7117650000  TIP3      55              0.0000000000
       166        56  TIP3      OH2             5.9514483727       11.2060779860      -20.2270100000  TIP3      56            -37.7400000000
       167        56  TIP3      H1              5.1500648575       11.1060028540      -19.7131900000  TIP3      56            -37.6000000000
       168        56  TIP3      H2              5.7641257588       10.7602236376      -21.0530700000  TIP3      56            -38.6900000000
       169        57  TIP3      OH2             4.0854267790        7.7355010016      -19.3699600000  TIP3      57              0.0000000000
       170        57  TIP3      H1              3.1712694851        7.4844773759      -19.2375200000  TIP3      57              0.0000000000
       171        57  TIP3      H2              4.0596351704        8.6858738650      -19.4811400000  TIP3      57              0.0000000000
       172        58  TIP3      OH2             1.1828064978       11.9794351732      -19.5835200000  TIP3      58              0.0000000000
       173        58  TIP3      H1              1.2079011156       12.7732130169      -20.1178500000  TIP3      58              0.0000000000
       174        58  TIP3      H2              0.3471492236       12.0289267375      -19.1193400000  TIP3      58              0.0000000000
       175        59  TIP3      OH2             6.0724319948       -7.5419612284      -19.6247300000  TIP3      59              0.0000000000
       176        59  TIP3      H1              5.9830974863       -8.4742246515      -19.4269100000  TIP3      59              0.0000000000
       177        59  TIP3      H2              6.4923018310       -7.1710969351      -18.8485800000  TIP3      59              0.0000000000
       178        60  TIP3      OH2           -11.8568462886       -0.0510704913      -20.0444200000  TIP3      60              0.0000000000
       179        60  TIP3      H1            -11.6265967209        0.7809232928      -19.6309100000  TIP3      60              0.0000000000
       180        60  TIP3      H2            -11.1522260862       -0.2100114620      -20.6725000000  TIP3      60              0.0000000000
       181        61  TIP3      OH2            14.2527610112       -5.3543944056      -19.7085050000  TIP3      61              0.0000000000
       182        61  TIP3      H1             13.3642648101       -5.0487895561      -19.5257050000  TIP3      61              0.0000000000
       183        61  TIP3      H2             14.3870147916       -6.0802402667      -19.0991150000  TIP3      61              0.0000000000
       184        62  TIP3      OH2            -8.0436179731       12.6787371786      -20.5087200000  TIP3      62              0.0000000000
       185        62  TIP3      H1             -8.5200835870       13.3008647854      -21.0584200000  TIP3      62              0.0000000000
       186        62  TIP3      H2             -8.6047907874       12.5563046806      -19.7429900000  TIP3      62              0.0000000000
       187        63  TIP3      OH2           -10.2457379615       14.2469060701      -21.5792900000  TIP3      63              0.0000000000
       188        63  TIP3      H1            -10.8988156153       14.1862201425      -22.2764600000  TIP3      63              0.0000000000
       189        63  TIP3      H2            -10.4882789280       15.0337077925      -21.0910800000  TIP3      63              0.0000000000
       190        64  TIP3      OH2            -8.2850969505       15.4590709344      -19.1834000000  TIP3      64              0.0000000000
       191        64  TIP3      H1             -8.4351293636       14.5372305707      -18.9738000000  TIP3      64              0.0000000000
       192        64  TIP3      H2             -9.1626037260       15.8341840687      -19.2576900000  TIP3      64              0.0000000000
       193        65  TIP3      OH2           -21.5317216679        5.4007873686      -19.9594300000  TIP3      65              0.0000000000
       194        65  TIP3      H1            -21.3901331875        4.5383259303      -19.5691300000  TIP3      65              0.0000000000
       195        65  TIP3      H2            -21.1417497759        6.0133684322      -19.3358100000  TIP3      65              0.0000000000
       196        66  TIP3      OH2           -17.9678552543        5.8206913659      -19.6954400000  TIP3      66              0.0000000000
       197        66  TIP3      H1            -18.1484524475        6.6383123100      -20.1592500000  TIP3      66              0.0000000000
       198        66  TIP3      H2            -18.1377076423        5.1355052035      -20.3419100000  TIP3      66              0.0000000000
       199        67  TIP3      OH2            11.1887518347       23.3115630095      -19.6498300000  TIP3      67              0.0000000000
       200        67  TIP3      H1             10.2714623179       23.0457126938      -19.7141400000  TIP3      67              0.0000000000
       201        67  TIP3      H2             11.6108682412       22.6020133092      -19.1655000000  TIP3      67              0.0000000000
       202        68  TIP3      OH2            15.6016090965       20.9794648915      -20.2670100000  TIP3      68              0.0000000000
       203        68  TIP3      H1             16.3803349260       20.9134775465      -19.7143200000  TIP3      68              0.0000000000
       204        68  TIP3      H2             15.9411384069       20.9717188005      -21.1619400000  TIP3      68              0.0000000000
       205        69  TIP3      OH2           -12.5852620021      -22.5919722330      -19.1925600000  TIP3      69              0.0000000000
       206        69  TIP3      H1            -13.5349974272      -22.7110582702      -19.2005200000  TIP3      69              0.0000000000
       207        69  TIP3      H2            -12.2629424398      -23.1884148726      -19.8682800000  TIP3      69              0.0000000000
       208        70  TIP3      OH2            -8.3378823405      -23.1879896007      -21.3180000000  TIP3      70              0.0000000000
       209        70  TIP3      H1             -7.3953880017      -23.3340081730      -21.2367000000  TIP3      70              0.0000000000
       210        70  TIP3      H2             -8.6767194416      -23.3078709208      -20.4308400000  TIP3      70              0.0000000000
       211        71  TIP3      OH2           -11.8157129630      -24.4381808331      -20.9540900000  TIP3      71              0.0000000000
       212        71  TIP3      H1            -11.5043797467      -25.3408994257      -20.8878200000  TIP3      71              0.0000000000
       213        71  TIP3      H2            -12.6118339338      -24.4970598686      -21.4822600000  TIP3      71              0.0000000000
       214        72  TIP3      OH2           -15.6941829129       20.5438967493      -20.9393050000  TIP3      72              0.0000000000
       215        72  TIP3      H1            -15.9282554695       20.0536698508      -20.1511950000  TIP3      72              0.0000000000
       216        72  TIP3      H2            -16.3575514885       20.2947266851      -21.5827950000  TIP3      72              0.0000000000
       217        73  TIP3      OH2            10.8965871816      -22.3169954454      -20.7379000000  TIP3      73              0.0000000000
       218        73  TIP3      H1             10.0138842136      -22.1074428418      -21.0431200000  TIP3      73              0.0000000000
       219        73  TIP3      H2             11.4497071963      -22.2105468234      -21.5118200000  TIP3      73              0.0000000000
       220        74  TIP3      OH2             9.8854811576      -26.4499208371      -19.3028000000  TIP3      74              0.0000000000
       221        74  TIP3      H1             10.7412517242      -26.8479076460      -19.4624300000  TIP3      74              0.0000000000
       222        74  TIP3      H2             10.0846408757      -25.6120143169      -18.8850900000  TIP3      74              0.0000000000
       223        75  TIP3      OH2             5.4014417725       29.2752159354      -20.6752950000  TIP3      75              0.0000000000
       224        75  TIP3      H1              5.5831938478       28.8016954679      -21.4870650000  TIP3      75              0.0000000000
       225        75  TIP3      H2              4.9697362779       30.0810406307      -20.9590250000  TIP3      75              0.0000000000
       226        76  TIP3      OH2            28.3727011166      -11.3659156826      -20.7225200000  TIP3      76              0.0000000000
       227        76  TIP3      H1             28.0587336359      -10.8736315943      -19.9640300000  TIP3      76              0.0000000000
       228        76  TIP3      H2             27.7983538058      -11.0951974505      -21.4388200000  TIP3      76              0.0000000000
       229        77  TIP3      OH2            25.8273063404       -7.3588653453      -19.1052500000  TIP3      77              0.0000000000
       230        77  TIP3      H1             25.3243377416       -6.7663702044      -18.5464900000  TIP3      77              0.0000000000
       231        77  TIP3      H2             25.2404582234       -7.5563336133      -19.8352200000  TIP3      77              0.0000000000
       232        78  TIP3      OH2            23.5285133414       23.2977844274      -20.2051550000  TIP3      78              0.0000000000
       233        78  TIP3      H1             22.8550530159       23.1333467506      -19.5451350000  TIP3      78              0.0000000000
       234        78  TIP3      H2             23.5833998345       24.2518703780      -20.2594950000  TIP3      78              0.0000000000
       235        79  TIP3      OH2            19.7335517224       23.8746850440      -21.2674750000  TIP3      79              0.0000000000
       236        79  TIP3      H1             19.4417723408       23.8290904229      -20.3569650000  TIP3      79              0.0000000000
       237        79  TIP3      H2             20.1765707445       24.7204725441      -21.3354450000  TIP3      79              0.0000000000
       238        80  TIP3      OH2            21.2336651512       20.9778810406      -20.0123250000  TIP3      80              0.0000000000
       239        80  TIP3      H1             21.3132637264       21.1929211748      -20.9416550000  TIP3      80              0.0000000000
       240        80  TIP3      H2             20.9959396582       20.0507575565      -20.0000350000  TIP3      80              0.0000000000
       241        81  TIP3      OH2            -1.7463743924       31.6797599033      -19.1512550000  TIP3      81              0.0000000000
       242        81  TIP3      H1             -2.2505242587       30.8850019896      -18.9768250000  TIP3      81              0.0000000000
       243        81  TIP3      H2             -0.8963879271       31.5196025449      -18.7412550000  TIP3      81              0.0000000000
       244        82  TIP3      OH2             1.6908093029       28.7972435111      -20.2117550000  TIP3      82              0.0000000000
       245        82  TIP3      H1              1.5198788508       29.5427889489      -19.6362750000  TIP3      82              0.0000000000
       246        82  TIP3      H2              0.8232087021       28.5094738837      -20.4958050000  TIP3      82              0.0000000000
       247        83  TIP3      OH2            27.2938796925      -18.2341315604      -21.4431450000  TIP3      83              0.0000000000
       248        83  TIP3      H1             26.7263075528      -17.6389432581      -21.9328950000  TIP3      83              0.0000000000
       249        83  TIP3      H2             26.9998808763      -18.1537894731      -20.5357550000  TIP3      83              0.0000000000
       250        84  TIP3      OH2            25.9014697831      -21.8147124316      -19.3827950000  TIP3      84              0.0000000000
       251        84  TIP3      H1             26.4027467114      -22.1126411776      -20.1418650000  TIP3      84              0.0000000000
       252        84  TIP3      H2             25.8416460372      -20.8656665318      -19.4921550000  TIP3      84              0.0000000000
       253        85  TIP3      OH2            24.5031201351      -16.9645707805      -19.8801750000  TIP3      85              0.0000000000
       254        85  TIP3      H1             23.7587842783      -16.4292782279      -19.6051050000  TIP3      85              0.0000000000
       255        85  TIP3      H2             24.7386265980      -16.6229803785      -20.7427750000  TIP3      85              0.0000000000
       256        86  TIP3      OH2            13.0757685514       31.1995249386      -18.7988200000  TIP3      86              0.0000000000
       257        86  TIP3      H1             13.7115411986       31.7985554027      -18.4074300000  TIP3      86              0.0000000000
       258        86  TIP3      H2             13.4222231250       30.3268205273      -18.6128400000  TIP3      86              0.0000000000
       259        87  TIP3      OH2            14.7527162178       27.8256139284      -21.6440700000  TIP3      87              0.0000000000
       260        87  TIP3      H1             15.1072126487       26.9616552265      -21.4340000000  TIP3      87              0.0000000000
       261        87  TIP3      H2             13.8722037839       27.8214862474      -21.2686900000  TIP3      87              0.0000000000
       262        88  TIP3      OH2           -26.8222543682      -14.0630646667      -19.5573400000  TIP3      88            -34.6900000000
       263        88  TIP3      H1            -27.2874009113      -14.8227561751      -19.2069900000  TIP3      88            -34.5000000000
       264        88  TIP3      H2            -26.3728337922      -14.3944092208      -20.3348100000  TIP3      88            -33.8900000000
       265        89  TIP3      OH2           -30.6108389858      -14.9574224077      -19.4884000000  TIP3      89              0.0000000000
       266        89  TIP3      H1            -29.9210218291      -15.6041593139      -19.3396500000  TIP3      89              0.0000000000
       267        89  TIP3      H2            -31.0123469375      -14.8326983202      -18.6284800000  TIP3      89              0.0000000000
       268        90  TIP3      OH2           -28.3404114022      -17.2016326128      -21.9929300000  TIP3      90              0.0000000000
       269        90  TIP3      H1            -28.9073528868      -17.4843865069      -22.7104700000  TIP3      90              0.0000000000
       270        90  TIP3      H2            -28.7376056394      -17.5815396546      -21.2092600000  TIP3      90              0.0000000000
       271        91  TIP3      OH2            11.0283906723      -29.7978977372      -20.8060200000  TIP3      91              0.0000000000
       272        91  TIP3      H1             10.8589372503      -30.4022722848      -20.0833500000  TIP3      91              0.0000000000
       273        91  TIP3      H2             10.6079854879      -30.2054001006      -21.5632700000  TIP3      91              0.0000000000
       274        92  TIP3      OH2            12.4679956725      -32.9355135438      -20.0472100000  TIP3      92              0.0000000000
       275        92  TIP3      H1             12.6369079776      -32.6009119609      -20.9279700000  TIP3      92              0.0000000000
       276        92  TIP3      H2             11.8654504014      -32.3001556340      -19.6605700000  TIP3      92              0.0000000000
       277        93  TIP3      OH2           -32.6296574853       16.3153033620      -20.7948600000  TIP3      93              0.0000000000
       278        93  TIP3      H1            -33.5170738256       16.5112535463      -20.4943400000  TIP3      93              0.0000000000
       279        93  TIP3      H2            -32.1597737606       16.0556189369      -20.0024000000  TIP3      93              0.0000000000
       280        94  TIP3      OH2           -15.9502685351       33.7144998870      -19.3473700000  TIP3      94              0.0000000000
       281        94  TIP3      H1            -16.2605941040       33.1242515727      -20.0340500000  TIP3      94              0.0000000000
       282        94  TIP3      H2            -15.1991772837       34.1620390940      -19.7369800000  TIP3      94              0.0000000000
       283        95  TIP3      OH2           -11.4098753270       33.0994130115      -21.6611800000  TIP3      95              0.0000000000
       284        95  TIP3      H1            -12.3083427794       33.4251419534      -21.6073500000  TIP3      95              0.0000000000
       285        95  TIP3      H2            -11.2902593478       32.5915075498      -20.8587100000  TIP3      95              0.0000000000
       286        96  TIP3      OH2           -13.7543129386       34.5085934892      -21.1417200000  TIP3      96              0.0000000000
       287        96  TIP3      H1            -14.0990563787       35.3697034022      -21.3780900000  TIP3      96              0.0000000000
       288        96  TIP3      H2            -13.1645856629       34.6795058829      -20.4073800000  TIP3      96              0.0000000000
       289        97  TIP3      OH2           -13.0626109666       37.1695284182      -18.1233000000  TIP3      97              0.0000000000
       290        97  TIP3      H1            -13.6361106450       37.8044461264      -18.5525000000  TIP3      97              0.0000000000
       291        97  TIP3      H2            -13.5133190110       36.9522431089      -17.3072900000  TIP3      97              0.0000000000
       292        98  TIP3      OH2            20.7851500635      -28.5169187061      -11.0287950000  TIP3      98              0.0000000000
       293        98  TIP3      H1             20.3619100860      -27.9962286363      -11.7114150000  TIP3      98              0.0000000000
       294        98  TIP3      H2             21.3786579148      -29.0985141361      -11.5038950000  TIP3      98              0.0000000000
       295        99  TIP3      OH2            21.1307906402      -24.9501343880      -14.7777850000  TIP3      99              0.0000000000
       296        99  TIP3      H1             21.4519576840      -24.0690870137      -14.9697350000  TIP3      99              0.0000000000
       297        99  TIP3      H2             20.4887410470      -25.1266293544      -15.4654250000  TIP3      99              0.0000000000
       298       100  TIP3      OH2            27.1747234899      -27.8594995334      -19.8044450000  TIP3      100             0.0000000000
       299       100  TIP3      H1             27.5223469619      -28.7244359442      -20.0218850000  TIP3      100             0.0000000000
       300       100  TIP3      H2             27.8416373852      -27.4676248255      -19.2406250000  TIP3      100             0.0000000000
       301       101  TIP3      OH2            24.7910853580      -27.2797287609      -21.7401350000  TIP3      101             0.0000000000
       302       101  TIP3      H1             25.1758019204      -28.0434170648      -22.1702650000  TIP3      101             0.0000000000
       303       101  TIP3      H2             24.9558688126      -27.4210025083      -20.8078650000  TIP3      101             0.0000000000
       304       102  TIP3      OH2            20.0018368847      -27.2823455365      -13.2895850000  TIP3      102             0.0000000000
       305       102  TIP3      H1             20.1959489046      -26.3562748237      -13.4343050000  TIP3      102             0.0000000000
       306       102  TIP3      H2             19.5887705926      -27.5709955379      -14.1033950000  TIP3      102             0.0000000000
       307       103  TIP3      OH2            23.6026130272      -29.6636449670      -19.8903250000  TIP3      103             0.0000000000
       308       103  TIP3      H1             24.1594487623      -30.1015852764      -19.2466050000  TIP3      103             0.0000000000
       309       103  TIP3      H2             22.7538800259      -30.0987077661      -19.8089950000  TIP3      103             0.0000000000
       310       104  TIP3      OH2            20.0718865573       31.3981188706      -19.2505950000  TIP3      104             0.0000000000
       311       104  TIP3      H1             21.0271219433       31.3812453877      -19.3094750000  TIP3      104             0.0000000000
       312       104  TIP3      H2             19.7937964425       31.9127814888      -20.0082350000  TIP3      104             0.0000000000
       313       105  TIP3      OH2           -38.4790112359      -17.9184701585      -18.6399500000  TIP3      105             0.0000000000
       314       105  TIP3      H1            -38.7706571018      -17.2605482633      -18.0088300000  TIP3      105             0.0000000000
       315       105  TIP3      H2            -37.5329595125      -17.7873746652      -18.7034300000  TIP3      105             0.0000000000
       316       106  TIP3      OH2           -34.9460772372      -17.3068479033      -20.2370100000  TIP3      106             0.0000000000
       317       106  TIP3      H1            -34.0697109797      -17.5738525034      -20.5143800000  TIP3      106             0.0000000000
       318       106  TIP3      H2            -34.8333657248      -16.4132870188      -19.9128500000  TIP3      106             0.0000000000
       319       107  TIP3      OH2           -33.8882124265      -21.5066116681      -19.9511700000  TIP3      107             0.0000000000
       320       107  TIP3      H1            -32.9888922014      -21.2485556047      -19.7490300000  TIP3      107             0.0000000000
       321       107  TIP3      H2            -34.4249155722      -20.7875798091      -19.6177400000  TIP3      107             0.0000000000
       322       108  TIP3      OH2            21.1565907158      -36.2028550768      -18.7047750000  TIP3      108             0.0000000000
       323       108  TIP3      H1             21.8176840756      -35.5508323531      -18.9372550000  TIP3      108             0.0000000000
       324       108  TIP3      H2             20.8735678722      -36.5672393280      -19.5434350000  TIP3      108             0.0000000000
       325       109  TIP3      OH2            32.3484432634       34.6862265566      -20.6447550000  TIP3      109             0.0000000000
       326       109  TIP3      H1             32.1749447873       35.6264053443      -20.5978750000  TIP3      109             0.0000000000
       327       109  TIP3      H2             31.9426001493       34.3276406819      -19.8554850000  TIP3      109             0.0000000000
       328       110  TIP3      OH2            28.0655279698       33.2558855040      -19.9425250000  TIP3      110             0.0000000000
       329       110  TIP3      H1             28.2808184328       32.4460280266      -20.4051450000  TIP3      110             0.0000000000
       330       110  TIP3      H2             27.2178326265       33.5189200643      -20.3009350000  TIP3      110             0.0000000000
