* EQUILIBRATED WATER
*  DATE:     7/11/24      0:35:50      CREATED BY USER: apache
*
     17055  EXT
         1         1  TIP3      OH2           -26.3955005324      -28.3606348050       -8.1691699678  W2        1               0.0000000000
         2         1  TIP3      H1            -26.3063905324      -27.4168148050       -8.3014599678  W2        1               0.0000000000
         3         1  TIP3      H2            -27.0337405324      -28.6359948050       -8.8272299678  W2        1               0.0000000000
         4         2  TIP3      OH2           -27.4623705324      -29.1055648050       -4.7503499678  W2        2               0.0000000000
         5         2  TIP3      H1            -27.5006205324      -29.7519348050       -4.0453899678  W2        2               0.0000000000
         6         2  TIP3      H2            -27.7847205324      -29.5721248050       -5.5214799678  W2        2               0.0000000000
         7         3  TIP3      OH2           -35.0938705324      -29.4913548050       -3.1573599678  W2        3               0.0000000000
         8         3  TIP3      H1            -35.0526605324      -30.1170248050       -2.4341199678  W2        3               0.0000000000
         9         3  TIP3      H2            -34.3911005324      -28.8674948050       -2.9753199678  W2        3               0.0000000000
        10         4  TIP3      OH2           -23.7563505324      -26.1665248050       -6.4488399678  W2        4               0.0000000000
        11         4  TIP3      H1            -24.1970805324      -26.8869248050       -5.9982799678  W2        4               0.0000000000
        12         4  TIP3      H2            -23.7693805324      -25.4458048050       -5.8190699678  W2        4               0.0000000000
        13         5  TIP3      OH2           -34.1705605324      -25.0414648050       -4.6224499678  W2        5               0.0000000000
        14         5  TIP3      H1            -34.5400405324      -25.8434148050       -4.9920199678  W2        5               0.0000000000
        15         5  TIP3      H2            -33.2294505324      -25.2099748050       -4.5761099678  W2        5               0.0000000000
        16         6  TIP3      OH2           -37.5605105324      -31.3812048050       -9.2295699678  W2        6               0.0000000000
        17         6  TIP3      H1            -38.0081705324      -30.5353348050       -9.2479199678  W2        6               0.0000000000
        18         6  TIP3      H2            -38.1213905324      -31.9607848050       -9.7450599678  W2        6               0.0000000000
        19         7  TIP3      OH2           -36.8499005324      -29.2192448050       -7.1037699678  W2        7               0.0000000000
        20         7  TIP3      H1            -36.6365505324      -29.9890848050       -6.5764699678  W2        7               0.0000000000
        21         7  TIP3      H2            -36.1121405324      -29.1295748050       -7.7070099678  W2        7               0.0000000000
        22         8  TIP3      OH2           -26.6448005324      -21.0623548050       -6.2367999678  W2        8               0.0000000000
        23         8  TIP3      H1            -26.0251605324      -21.7388848050       -6.5098799678  W2        8               0.0000000000
        24         8  TIP3      H2            -26.8530605324      -21.2802748050       -5.3283099678  W2        8               0.0000000000
        25         9  TIP3      OH2           -29.0729305324      -26.6734248050       -4.3442499678  W2        9               0.0000000000
        26         9  TIP3      H1            -28.7691405324      -27.3592848050       -4.9388399678  W2        9               0.0000000000
        27         9  TIP3      H2            -28.3515305324      -26.5545548050       -3.7264499678  W2        9               0.0000000000
        28        10  TIP3      OH2           -20.4099505324      -35.0718948050       -3.4836299678  W2        10              0.0000000000
        29        10  TIP3      H1            -20.3607305324      -34.4617748050       -2.7477199678  W2        10              0.0000000000
        30        10  TIP3      H2            -19.9844405324      -34.6108048050       -4.2065199678  W2        10              0.0000000000
        31        11  TIP3      OH2           -25.9322305324      -32.2791848050       -4.0167699678  W2        11              0.0000000000
        32        11  TIP3      H1            -25.7896405324      -33.2254848050       -3.9966099678  W2        11              0.0000000000
        33        11  TIP3      H2            -26.0383305324      -32.0722048050       -4.9452799678  W2        11              0.0000000000
        34        12  TIP3      OH2           -32.7774005324      -34.1775448050       -6.7442899678  W2        12              0.0000000000
        35        12  TIP3      H1            -32.7342905324      -33.3176948050       -7.1626599678  W2        12              0.0000000000
        36        12  TIP3      H2            -33.2349905324      -34.7300748050       -7.3779699678  W2        12              0.0000000000
        37        13  TIP3      OH2           -25.0551305324      -34.0469848050       -8.3434599678  W2        13              0.0000000000
        38        13  TIP3      H1            -24.4087005324      -34.3756648050       -7.7186999678  W2        13              0.0000000000
        39        13  TIP3      H2            -24.5451905324      -33.5290848050       -8.9663199678  W2        13              0.0000000000
        40        14  TIP3      OH2           -36.1572505324      -31.7809648050       -5.9821499678  W2        14              0.0000000000
        41        14  TIP3      H1            -35.5035905324      -32.3307948050       -5.5501399678  W2        14              0.0000000000
        42        14  TIP3      H2            -36.1333205324      -32.0550648050       -6.8989499678  W2        14              0.0000000000
        43        15  TIP3      OH2           -31.0008005324      -30.2308348050       -6.7669999678  W2        15              0.0000000000
        44        15  TIP3      H1            -30.3847005324      -30.7572948050       -6.2575999678  W2        15              0.0000000000
        45        15  TIP3      H2            -31.5869205324      -30.8709648050       -7.1706399678  W2        15              0.0000000000
        46        16  TIP3      OH2           -20.0184905324      -33.5939748050       -1.2476499678  W2        16              0.0000000000
        47        16  TIP3      H1            -20.7070305324      -32.9359048050       -1.3429899678  W2        16              0.0000000000
        48        16  TIP3      H2            -20.0030305324      -33.7911848050       -0.3111099678  W2        16              0.0000000000
        49        17  TIP3      OH2           -33.9672105324      -35.2597048050       -2.6702099678  W2        17              0.0000000000
        50        17  TIP3      H1            -34.1860405324      -34.7296448050       -3.4366099678  W2        17              0.0000000000
        51        17  TIP3      H2            -34.6351205324      -35.0331548050       -2.0230699678  W2        17              0.0000000000
        52        18  TIP3      OH2           -26.5982305324      -25.7595948050       -9.1262999678  W2        18              0.0000000000
        53        18  TIP3      H1            -26.8937205324      -26.0823648050       -9.9776099678  W2        18              0.0000000000
        54        18  TIP3      H2            -26.9224505324      -24.8599248050       -9.0850399678  W2        18              0.0000000000
        55        19  TIP3      OH2           -31.3980705324      -27.5841348050       -2.3828399678  W2        19              0.0000000000
        56        19  TIP3      H1            -32.1381605324      -26.9859848050       -2.2793199678  W2        19              0.0000000000
        57        19  TIP3      H2            -30.6841205324      -27.0301748050       -2.6984799678  W2        19              0.0000000000
        58        20  TIP3      OH2           -23.2912905324      -34.7560548050       -6.3628699678  W2        20              0.0000000000
        59        20  TIP3      H1            -23.5064905324      -35.5217148050       -5.8302699678  W2        20              0.0000000000
        60        20  TIP3      H2            -22.6355505324      -34.2835948050       -5.8500199678  W2        20              0.0000000000
        61        21  TIP3      OH2           -34.3734805324      -33.3675248050       -4.7179899678  W2        21              0.0000000000
        62        21  TIP3      H1            -33.7598505324      -32.7347648050       -4.3447499678  W2        21              0.0000000000
        63        21  TIP3      H2            -33.8614105324      -33.8400248050       -5.3742999678  W2        21              0.0000000000
        64        22  TIP3      OH2           -32.9906405324      -25.6198348050       -1.5956899678  W2        22              0.0000000000
        65        22  TIP3      H1            -32.9958805324      -24.7404848050       -1.9737599678  W2        22              0.0000000000
        66        22  TIP3      H2            -33.8442305324      -25.7034248050       -1.1706999678  W2        22              0.0000000000
        67        23  TIP3      OH2           -36.8695505324      -25.9490448050      -10.8137599678  W2        23              0.0000000000
        68        23  TIP3      H1            -37.1414605324      -25.7199448050      -11.7024699678  W2        23              0.0000000000
        69        23  TIP3      H2            -36.8239805324      -25.1111648050      -10.3532299678  W2        23              0.0000000000
        70        24  TIP3      OH2           -23.2445805324      -24.3274548050       -4.1009099678  W2        24              0.0000000000
        71        24  TIP3      H1            -24.1862105324      -24.2690648050       -3.9392199678  W2        24              0.0000000000
        72        24  TIP3      H2            -22.9679705324      -23.4214048050       -4.2379399678  W2        24              0.0000000000
        73        25  TIP3      OH2           -22.9438805324      -36.0409248050       -2.6835199678  W2        25              0.0000000000
        74        25  TIP3      H1            -23.6799605324      -35.4302148050       -2.7213899678  W2        25              0.0000000000
        75        25  TIP3      H2            -22.2604805324      -35.6260248050       -3.2098799678  W2        25              0.0000000000
        76        26  TIP3      OH2           -29.9407405324      -37.9541948050       -5.2177199678  W2        26              0.0000000000
        77        26  TIP3      H1            -30.0583205324      -38.9025948050       -5.2718899678  W2        26              0.0000000000
        78        26  TIP3      H2            -30.7957305324      -37.6215848050       -4.9446099678  W2        26              0.0000000000
        79        27  TIP3      OH2           -24.9924605324      -22.5461048050       -7.4757499678  W2        27              0.0000000000
        80        27  TIP3      H1            -24.5672305324      -23.2533148050       -7.9607899678  W2        27              0.0000000000
        81        27  TIP3      H2            -24.6754605324      -21.7448348050       -7.8925299678  W2        27              0.0000000000
        82        28  TIP3      OH2           -23.8328105324      -24.6452548050       -8.9670899678  W2        28              0.0000000000
        83        28  TIP3      H1            -24.0903305324      -25.3352448050       -9.5784999678  W2        28              0.0000000000
        84        28  TIP3      H2            -23.7617305324      -25.0881348050       -8.1214999678  W2        28              0.0000000000
        85        29  TIP3      OH2           -22.1467905324      -26.0785848050       -0.4897399678  W2        29              0.0000000000
        86        29  TIP3      H1            -22.0071605324      -26.6703348050       -1.2290399678  W2        29              0.0000000000
        87        29  TIP3      H2            -21.9795105324      -25.2059948050       -0.8458599678  W2        29              0.0000000000
        88        30  TIP3      OH2           -27.6742505324      -29.1166348050      -10.7171399678  W2        30              0.0000000000
        89        30  TIP3      H1            -28.3857005324      -28.5816648050      -11.0690899678  W2        30              0.0000000000
        90        30  TIP3      H2            -26.9832905324      -29.0614248050      -11.3772499678  W2        30              0.0000000000
        91        31  TIP3      OH2           -27.6203305324      -30.6592048050      -13.6786399678  W2        31              0.0000000000
        92        31  TIP3      H1            -26.9193405324      -30.6365148050      -13.0272399678  W2        31              0.0000000000
        93        31  TIP3      H2            -27.3180405324      -31.2872348050      -14.3347099678  W2        31              0.0000000000
        94        32  TIP3      OH2           -20.3048605324      -29.7387848050       -2.4236999678  W2        32              0.0000000000
        95        32  TIP3      H1            -20.9574505324      -29.0442248050       -2.3346099678  W2        32              0.0000000000
        96        32  TIP3      H2            -19.8398305324      -29.5286948050       -3.2335399678  W2        32              0.0000000000
        97        33  TIP3      OH2           -24.2684805324      -28.9073048050       -9.7655499678  W2        33              0.0000000000
        98        33  TIP3      H1            -25.0003805324      -28.6789348050       -9.1924899678  W2        33              0.0000000000
        99        33  TIP3      H2            -23.8212605324      -29.6210348050       -9.3107999678  W2        33              0.0000000000
       100        34  TIP3      OH2           -24.3711305324      -30.7330448050       -0.6978499678  W2        34              0.0000000000
       101        34  TIP3      H1            -24.2912205324      -29.9696048050       -0.1259999678  W2        34              0.0000000000
       102        34  TIP3      H2            -24.9723605324      -30.4538048050       -1.3883399678  W2        34              0.0000000000
       103        35  TIP3      OH2           -32.6231105324      -28.2766848050       -7.8830499678  W2        35              0.0000000000
       104        35  TIP3      H1            -32.9535905324      -28.6473448050       -8.7013499678  W2        35              0.0000000000
       105        35  TIP3      H2            -32.0347005324      -28.9472848050       -7.5362199678  W2        35              0.0000000000
       106        36  TIP3      OH2           -31.2563605324      -24.8486248050       -5.2018299678  W2        36              0.0000000000
       107        36  TIP3      H1            -31.3512305324      -25.4273148050       -5.9583699678  W2        36              0.0000000000
       108        36  TIP3      H2            -30.5270005324      -25.2200548050       -4.7055499678  W2        36              0.0000000000
       109        37  TIP3      OH2           -32.2565605324      -29.5081248050       -4.2495499678  W2        37              0.0000000000
       110        37  TIP3      H1            -31.6913105324      -29.3867048050       -5.0124299678  W2        37              0.0000000000
       111        37  TIP3      H2            -31.9376705324      -28.8706248050       -3.6106999678  W2        37              0.0000000000
       112        38  TIP3      OH2           -25.9473405324      -24.0049348050       -3.5154999678  W2        38              0.0000000000
       113        38  TIP3      H1            -26.1876805324      -23.3426248050       -2.8675799678  W2        38              0.0000000000
       114        38  TIP3      H2            -26.1455205324      -24.8394148050       -3.0905399678  W2        38              0.0000000000
       115        39  TIP3      OH2           -31.3764905324      -25.1088548050        0.4676400322  W2        39              0.0000000000
       116        39  TIP3      H1            -31.6877405324      -24.3265348050        0.9229600322  W2        39              0.0000000000
       117        39  TIP3      H2            -32.0264705324      -25.2619448050       -0.2181599678  W2        39              0.0000000000
       118        40  TIP3      OH2           -25.3975305324      -29.7450148050      -12.0804299678  W2        40              0.0000000000
       119        40  TIP3      H1            -24.8179805324      -29.5949848050      -11.3335399678  W2        40              0.0000000000
       120        40  TIP3      H2            -24.9835305324      -29.2742748050      -12.8037899678  W2        40              0.0000000000
       121        41  TIP3      OH2           -34.4565005324      -28.9107448050       -0.3037899678  W2        41              0.0000000000
       122        41  TIP3      H1            -34.3861805324      -28.2600648050        0.3947100322  W2        41              0.0000000000
       123        41  TIP3      H2            -35.3472805324      -28.8079948050       -0.6386999678  W2        41              0.0000000000
       124        42  TIP3      OH2           -27.6710405324      -23.0081648050       -8.6451199678  W2        42              0.0000000000
       125        42  TIP3      H1            -27.1972805324      -22.7125348050       -7.8676999678  W2        42              0.0000000000
       126        42  TIP3      H2            -28.2341105324      -22.2700048050       -8.8781599678  W2        42              0.0000000000
       127        43  TIP3      OH2           -33.1369005324      -23.0373548050        1.2310200322  W2        43              0.0000000000
       128        43  TIP3      H1            -33.1293705324      -23.1733848050        0.2835700322  W2        43              0.0000000000
       129        43  TIP3      H2            -34.0528605324      -23.1545448050        1.4830200322  W2        43              0.0000000000
       130        44  TIP3      OH2           -21.6986905324      -37.9949748050      -12.2674599678  W2        44              0.0000000000
       131        44  TIP3      H1            -22.5986205324      -37.8560748050      -11.9723999678  W2        44              0.0000000000
       132        44  TIP3      H2            -21.4468505324      -37.1635148050      -12.6692899678  W2        44              0.0000000000
       133        45  TIP3      OH2           -33.6328405324      -29.2072548050      -10.2937699678  W2        45              0.0000000000
       134        45  TIP3      H1            -33.9247105324      -28.4390848050      -10.7846399678  W2        45              0.0000000000
       135        45  TIP3      H2            -34.3073205324      -29.8666348050      -10.4566299678  W2        45              0.0000000000
       136        46  TIP3      OH2           -20.5095505324      -23.6287348050      -13.8910699678  W2        46              0.0000000000
       137        46  TIP3      H1            -20.4362005324      -22.6897148050      -13.7205399678  W2        46              0.0000000000
       138        46  TIP3      H2            -19.6040405324      -23.9338748050      -13.9473399678  W2        46              0.0000000000
       139        47  TIP3      OH2           -37.5398305324      -26.8443348050       -1.4787899678  W2        47              0.0000000000
       140        47  TIP3      H1            -38.0409905324      -26.8723948050       -2.2938199678  W2        47              0.0000000000
       141        47  TIP3      H2            -37.5344605324      -27.7500148050       -1.1690599678  W2        47              0.0000000000
       142        48  TIP3      OH2           -37.7895605324      -24.0639548050       -4.5947699678  W2        48              0.0000000000
       143        48  TIP3      H1            -36.8435005324      -24.2082548050       -4.6138199678  W2        48              0.0000000000
       144        48  TIP3      H2            -37.9019305324      -23.2796748050       -4.0576499678  W2        48              0.0000000000
       145        49  TIP3      OH2           -19.5917105324      -23.3979848050        1.0876000322  W2        49              0.0000000000
       146        49  TIP3      H1            -19.6410305324      -24.3531748050        1.0503600322  W2        49              0.0000000000
       147        49  TIP3      H2            -20.4184805324      -23.1304548050        1.4889800322  W2        49              0.0000000000
       148        50  TIP3      OH2           -28.6133105324      -23.8240648050       -0.0362599678  W2        50              0.0000000000
       149        50  TIP3      H1            -28.5258505324      -22.9976048050        0.4386500322  W2        50              0.0000000000
       150        50  TIP3      H2            -29.4768005324      -24.1536848050        0.2126700322  W2        50              0.0000000000
       151        51  TIP3      OH2           -28.1987305324      -20.0516948050      -10.2301999678  W2        51              0.0000000000
       152        51  TIP3      H1            -28.2741305324      -20.1729748050      -11.1766799678  W2        51              0.0000000000
       153        51  TIP3      H2            -28.1658605324      -19.1024248050      -10.1117399678  W2        51              0.0000000000
       154        52  TIP3      OH2           -34.5453505324      -21.2629948050       -8.4492999678  W2        52              0.0000000000
       155        52  TIP3      H1            -34.3933105324      -21.6109548050       -7.5706499678  W2        52              0.0000000000
       156        52  TIP3      H2            -35.3963105324      -21.6192648050       -8.7045799678  W2        52              0.0000000000
       157        53  TIP3      OH2           -25.0971305324      -20.8976748050      -13.2279599678  W2        53              0.0000000000
       158        53  TIP3      H1            -24.7222905324      -21.6420648050      -13.6986999678  W2        53              0.0000000000
       159        53  TIP3      H2            -25.0927605324      -21.1676148050      -12.3096299678  W2        53              0.0000000000
       160        54  TIP3      OH2           -25.4283205324      -20.9719648050      -10.4787399678  W2        54              0.0000000000
       161        54  TIP3      H1            -26.3633405324      -20.8717748050      -10.3000399678  W2        54              0.0000000000
       162        54  TIP3      H2            -25.1481305324      -21.6813648050       -9.9004199678  W2        54              0.0000000000
       163        55  TIP3      OH2           -22.4397305324      -31.9047348050        1.5678200322  W2        55              0.0000000000
       164        55  TIP3      H1            -22.8470505324      -31.4241748050        0.8471500322  W2        55              0.0000000000
       165        55  TIP3      H2            -22.3991605324      -32.8101348050        1.2599000322  W2        55              0.0000000000
       166        56  TIP3      OH2           -35.2907805324      -25.5207948050       -0.4355099678  W2        56              0.0000000000
       167        56  TIP3      H1            -35.0746505324      -25.8822348050        0.4240700322  W2        56              0.0000000000
       168        56  TIP3      H2            -36.1463105324      -25.8954148050       -0.6451599678  W2        56              0.0000000000
       169        57  TIP3      OH2           -32.6719805324      -37.0507448050       -4.4400899678  W2        57              0.0000000000
       170        57  TIP3      H1            -33.5336105324      -37.1379248050       -4.8477999678  W2        57              0.0000000000
       171        57  TIP3      H2            -32.6944105324      -36.1947348050       -4.0123299678  W2        57              0.0000000000
       172        58  TIP3      OH2           -28.0092005324      -37.3287048050       -1.0653899678  W2        58              0.0000000000
       173        58  TIP3      H1            -27.5888905324      -37.7439948050       -0.3123299678  W2        58              0.0000000000
       174        58  TIP3      H2            -28.9422405324      -37.5073748050       -0.9481899678  W2        58              0.0000000000
       175        59  TIP3      OH2           -24.6827105324      -33.5731848050       -0.2119399678  W2        59              0.0000000000
       176        59  TIP3      H1            -25.1967605324      -33.6989648050        0.5856600322  W2        59              0.0000000000
       177        59  TIP3      H2            -24.8382405324      -32.6608748050       -0.4563199678  W2        59              0.0000000000
       178        60  TIP3      OH2           -23.9202205324      -28.7121848050      -14.4506399678  W2        60              0.0000000000
       179        60  TIP3      H1            -23.8781405324      -28.9347948050      -15.3806399678  W2        60              0.0000000000
       180        60  TIP3      H2            -23.0710105324      -28.3134748050      -14.2606499678  W2        60              0.0000000000
       181        61  TIP3      OH2           -28.3474705324      -34.8363648050      -13.7803099678  W2        61              0.0000000000
       182        61  TIP3      H1            -28.6009905324      -34.8172048050      -12.8574999678  W2        61              0.0000000000
       183        61  TIP3      H2            -28.6042605324      -35.7078248050      -14.0816899678  W2        61              0.0000000000
       184        62  TIP3      OH2           -32.5809705324      -32.0852948050       -3.3450699678  W2        62              0.0000000000
       185        62  TIP3      H1            -33.2227605324      -32.1255648050       -2.6360599678  W2        62              0.0000000000
       186        62  TIP3      H2            -32.5437705324      -31.1588248050       -3.5827699678  W2        62              0.0000000000
       187        63  TIP3      OH2           -32.5840605324      -31.8642848050       -8.4330699678  W2        63              0.0000000000
       188        63  TIP3      H1            -33.4767705324      -32.2046748050       -8.4916899678  W2        63              0.0000000000
       189        63  TIP3      H2            -32.1334005324      -32.2411948050       -9.1887499678  W2        63              0.0000000000
       190        64  TIP3      OH2           -27.0485105324      -31.4482548050       -9.6159899678  W2        64              0.0000000000
       191        64  TIP3      H1            -27.4574805324      -30.6333948050       -9.9075099678  W2        64              0.0000000000
       192        64  TIP3      H2            -26.3278905324      -31.5882448050      -10.2302799678  W2        64              0.0000000000
       193        65  TIP3      OH2           -27.9463505324      -31.2726148050        1.8720800322  W2        65              0.0000000000
       194        65  TIP3      H1            -28.5089705324      -31.9774548050        2.1928600322  W2        65              0.0000000000
       195        65  TIP3      H2            -27.1200105324      -31.3934248050        2.3398400322  W2        65              0.0000000000
       196        66  TIP3      OH2           -26.0437405324      -32.0022148050       -6.8020199678  W2        66              0.0000000000
       197        66  TIP3      H1            -26.2392905324      -31.3965348050       -7.5169599678  W2        66              0.0000000000
       198        66  TIP3      H2            -25.8624805324      -32.8356948050       -7.2363899678  W2        66              0.0000000000
       199        67  TIP3      OH2           -34.8309205324      -31.7649448050       -1.4778699678  W2        67              0.0000000000
       200        67  TIP3      H1            -34.8689805324      -31.3647848050       -0.6091599678  W2        67              0.0000000000
       201        67  TIP3      H2            -35.3218105324      -32.5817048050       -1.3875799678  W2        67              0.0000000000
       202        68  TIP3      OH2           -31.4651805324      -34.3907148050      -14.6792699678  W2        68              0.0000000000
       203        68  TIP3      H1            -31.8961105324      -34.8357048050      -13.9495299678  W2        68              0.0000000000
       204        68  TIP3      H2            -32.1833105324      -34.0190848050      -15.1915199678  W2        68              0.0000000000
       205        69  TIP3      OH2           -38.2228405324      -34.6487648050       -7.6273999678  W2        69              0.0000000000
       206        69  TIP3      H1            -37.5920705324      -34.6775548050       -6.9080099678  W2        69              0.0000000000
       207        69  TIP3      H2            -37.7734105324      -35.0738948050       -8.3578099678  W2        69              0.0000000000
       208        70  TIP3      OH2           -36.9486305324      -33.9025648050      -12.2033599678  W2        70              0.0000000000
       209        70  TIP3      H1            -36.4744605324      -33.3115748050      -12.7882699678  W2        70              0.0000000000
       210        70  TIP3      H2            -37.6659905324      -33.3722748050      -11.8563499678  W2        70              0.0000000000
       211        71  TIP3      OH2           -26.7798205324      -30.3640848050       -2.1307799678  W2        71              0.0000000000
       212        71  TIP3      H1            -26.4563405324      -30.9951148050       -2.7737299678  W2        71              0.0000000000
       213        71  TIP3      H2            -27.2198905324      -30.8988648050       -1.4700399678  W2        71              0.0000000000
       214        72  TIP3      OH2           -30.0025305324      -34.4365348050       -7.3466599678  W2        72              0.0000000000
       215        72  TIP3      H1            -30.9134205324      -34.3798548050       -7.0580599678  W2        72              0.0000000000
       216        72  TIP3      H2            -29.4972405324      -34.4969848050       -6.5359399678  W2        72              0.0000000000
       217        73  TIP3      OH2           -35.1741905324      -32.8079048050       -8.5198999678  W2        73              0.0000000000
       218        73  TIP3      H1            -36.0633905324      -32.7083548050       -8.8599399678  W2        73              0.0000000000
       219        73  TIP3      H2            -34.8777005324      -33.6496048050       -8.8661099678  W2        73              0.0000000000
       220        74  TIP3      OH2           -31.5210105324      -32.8076448050      -10.8634399678  W2        74              0.0000000000
       221        74  TIP3      H1            -30.5894605324      -32.6786448050      -10.6851299678  W2        74              0.0000000000
       222        74  TIP3      H2            -31.7359805324      -32.1382148050      -11.5129699678  W2        74              0.0000000000
       223        75  TIP3      OH2           -25.5973405324      -35.2019048050       -4.0824799678  W2        75              0.0000000000
       224        75  TIP3      H1            -26.2741805324      -35.0705948050       -3.4185099678  W2        75              0.0000000000
       225        75  TIP3      H2            -26.0828505324      -35.3569548050       -4.8927099678  W2        75              0.0000000000
       226        76  TIP3      OH2           -32.8469905324      -31.6134248050      -13.2968299678  W2        76              0.0000000000
       227        76  TIP3      H1            -33.3894805324      -31.9930448050      -13.9880699678  W2        76              0.0000000000
       228        76  TIP3      H2            -32.0135005324      -31.4189548050      -13.7254199678  W2        76              0.0000000000
       229        77  TIP3      OH2           -22.3098305324      -19.5303648050        2.1942800322  W2        77              0.0000000000
       230        77  TIP3      H1            -22.1099605324      -19.1061748050        1.3598100322  W2        77              0.0000000000
       231        77  TIP3      H2            -21.6544605324      -19.1865448050        2.8013200322  W2        77              0.0000000000
       232        78  TIP3      OH2           -34.7118505324      -27.0562348050        1.8023300322  W2        78              0.0000000000
       233        78  TIP3      H1            -33.9796105324      -26.8016448050        2.3637800322  W2        78              0.0000000000
       234        78  TIP3      H2            -35.4919805324      -26.8516948050        2.3178700322  W2        78              0.0000000000
       235        79  TIP3      OH2           -28.6825605324      -31.6492348050       -5.4596999678  W2        79              0.0000000000
       236        79  TIP3      H1            -28.1182205324      -32.1955748050       -6.0067399678  W2        79              0.0000000000
       237        79  TIP3      H2            -28.8302205324      -32.1710448050       -4.6709399678  W2        79              0.0000000000
       238        80  TIP3      OH2           -33.6805905324      -35.5126248050       -9.0412199678  W2        80              0.0000000000
       239        80  TIP3      H1            -33.9976405324      -36.4150948050       -9.0766799678  W2        80              0.0000000000
       240        80  TIP3      H2            -32.8991805324      -35.5108848050       -9.5940599678  W2        80              0.0000000000
       241        81  TIP3      OH2           -30.0559705324      -33.2606248050       -3.0456599678  W2        81              0.0000000000
       242        81  TIP3      H1            -30.8914405324      -32.8066748050       -2.9354199678  W2        81              0.0000000000
       243        81  TIP3      H2            -29.5319105324      -32.9847748050       -2.2936699678  W2        81              0.0000000000
       244        82  TIP3      OH2           -29.5117105324      -27.0478548050      -11.3610199678  W2        82              0.0000000000
       245        82  TIP3      H1            -30.2566105324      -27.5553248050      -11.6832299678  W2        82              0.0000000000
       246        82  TIP3      H2            -29.6459905324      -26.9990548050      -10.4145399678  W2        82              0.0000000000
       247        83  TIP3      OH2           -22.3618205324      -27.9150348050       -2.5742599678  W2        83              0.0000000000
       248        83  TIP3      H1            -21.7199405324      -27.4584048050       -3.1180399678  W2        83              0.0000000000
       249        83  TIP3      H2            -23.1921305324      -27.8017948050       -3.0368499678  W2        83              0.0000000000
       250        84  TIP3      OH2           -25.6140305324      -34.2338648050      -13.1617599678  W2        84              0.0000000000
       251        84  TIP3      H1            -26.5526105324      -34.1223048050      -13.3128799678  W2        84              0.0000000000
       252        84  TIP3      H2            -25.3168205324      -33.3771748050      -12.8551899678  W2        84              0.0000000000
       253        85  TIP3      OH2           -27.9925005324      -26.8635248050       -0.1241099678  W2        85              0.0000000000
       254        85  TIP3      H1            -28.3378905324      -27.2452848050        0.6828500322  W2        85              0.0000000000
       255        85  TIP3      H2            -28.1924905324      -25.9301648050       -0.0528199678  W2        85              0.0000000000
       256        86  TIP3      OH2           -24.8956805324      -32.3665948050      -11.5010199678  W2        86              0.0000000000
       257        86  TIP3      H1            -24.0037805324      -32.5040948050      -11.1818999678  W2        86              0.0000000000
       258        86  TIP3      H2            -24.8393205324      -31.5759848050      -12.0376699678  W2        86              0.0000000000
       259        87  TIP3      OH2           -34.3868805324      -27.7528548050       -5.5912299678  W2        87              0.0000000000
       260        87  TIP3      H1            -33.6421605324      -27.7552848050       -6.1925799678  W2        87              0.0000000000
       261        87  TIP3      H2            -34.3092205324      -28.5764748050       -5.1097199678  W2        87              0.0000000000
       262        88  TIP3      OH2           -27.3863005324      -25.5894248050      -12.3355599678  W2        88              0.0000000000
       263        88  TIP3      H1            -27.6814605324      -24.7626348050      -11.9540799678  W2        88              0.0000000000
       264        88  TIP3      H2            -28.0893005324      -26.2087348050      -12.1394199678  W2        88              0.0000000000
       265        89  TIP3      OH2           -37.3789105324      -29.2921648050       -0.2763799678  W2        89              0.0000000000
       266        89  TIP3      H1            -37.1560505324      -29.7102048050        0.5553700322  W2        89              0.0000000000
       267        89  TIP3      H2            -37.9809005324      -29.9046648050       -0.6990999678  W2        89              0.0000000000
       268        90  TIP3      OH2           -30.3624205324      -29.7751748050        1.9365900322  W2        90              0.0000000000
       269        90  TIP3      H1            -30.6583405324      -29.9408748050        1.0415000322  W2        90              0.0000000000
       270        90  TIP3      H2            -29.4309005324      -29.9951448050        1.9259800322  W2        90              0.0000000000
       271        91  TIP3      OH2           -25.7421405324      -24.4019748050       -0.1736099678  W2        91              0.0000000000
       272        91  TIP3      H1            -26.6427105324      -24.2187148050       -0.4412199678  W2        91              0.0000000000
       273        91  TIP3      H2            -25.7080305324      -24.1430448050        0.7472700322  W2        91              0.0000000000
       274        92  TIP3      OH2           -20.0108105324      -32.1571848050      -11.8063499678  W2        92              0.0000000000
       275        92  TIP3      H1            -20.5651805324      -32.5533848050      -12.4785999678  W2        92              0.0000000000
       276        92  TIP3      H2            -19.9104505324      -31.2466648050      -12.0840199678  W2        92              0.0000000000
       277        93  TIP3      OH2           -20.0476105324      -26.3570148050        1.0308000322  W2        93              0.0000000000
       278        93  TIP3      H1            -20.8987605324      -26.1186348050        0.6634400322  W2        93              0.0000000000
       279        93  TIP3      H2            -19.4572705324      -26.3736948050        0.2775100322  W2        93              0.0000000000
       280        94  TIP3      OH2           -21.7156405324      -23.3711448050      -11.3411399678  W2        94              0.0000000000
       281        94  TIP3      H1            -22.0885305324      -24.1967648050      -11.0320799678  W2        94              0.0000000000
       282        94  TIP3      H2            -21.4382905324      -23.5542048050      -12.2387999678  W2        94              0.0000000000
       283        95  TIP3      OH2           -24.5552505324      -28.5631948050       -4.3199499678  W2        95              0.0000000000
       284        95  TIP3      H1            -25.4835605324      -28.7950048050       -4.3470199678  W2        95              0.0000000000
       285        95  TIP3      H2            -24.1041405324      -29.3402148050       -4.6500699678  W2        95              0.0000000000
       286        96  TIP3      OH2           -32.0119405324      -24.2350348050       -8.1870799678  W2        96              0.0000000000
       287        96  TIP3      H1            -31.4847205324      -23.4615948050       -8.3871999678  W2        96              0.0000000000
       288        96  TIP3      H2            -32.8920905324      -24.0101148050       -8.4886799678  W2        96              0.0000000000
       289        97  TIP3      OH2           -36.2571705324      -29.3726248050      -13.5998399678  W2        97              0.0000000000
       290        97  TIP3      H1            -35.6411805324      -28.7459048050      -13.2203599678  W2        97              0.0000000000
       291        97  TIP3      H2            -37.1189105324      -29.0566448050      -13.3281899678  W2        97              0.0000000000
       292        98  TIP3      OH2           -30.5847105324      -26.5720448050       -8.6106499678  W2        98              0.0000000000
       293        98  TIP3      H1            -30.8257105324      -25.6466048050       -8.5691199678  W2        98              0.0000000000
       294        98  TIP3      H2            -31.3253505324      -27.0309148050       -8.2142599678  W2        98              0.0000000000
       295        99  TIP3      OH2           -30.0700505324      -22.4226848050       -2.2955399678  W2        99              0.0000000000
       296        99  TIP3      H1            -29.7075805324      -21.5681248050       -2.5290999678  W2        99              0.0000000000
       297        99  TIP3      H2            -29.5385305324      -22.7145248050       -1.5549099678  W2        99              0.0000000000
       298       100  TIP3      OH2           -31.9016305324      -21.5502848050       -9.0654299678  W2        100             0.0000000000
       299       100  TIP3      H1            -32.8515805324      -21.4445448050       -9.0140999678  W2        100             0.0000000000
       300       100  TIP3      H2            -31.5498205324      -20.7295448050       -8.7206799678  W2        100             0.0000000000
       301       101  TIP3      OH2           -26.5259705324      -26.3236148050       -2.5949799678  W2        101             0.0000000000
       302       101  TIP3      H1            -26.9518405324      -26.5514448050       -1.7685799678  W2        101             0.0000000000
       303       101  TIP3      H2            -25.9453905324      -27.0624348050       -2.7774499678  W2        101             0.0000000000
       304       102  TIP3      OH2           -24.3230805324      -25.3945648050      -13.5210799678  W2        102             0.0000000000
       305       102  TIP3      H1            -23.9697705324      -25.7745848050      -12.7167299678  W2        102             0.0000000000
       306       102  TIP3      H2            -25.2717305324      -25.4880848050      -13.4341499678  W2        102             0.0000000000
       307       103  TIP3      OH2           -23.8675505324      -21.7716648050       -0.1254999678  W2        103             0.0000000000
       308       103  TIP3      H1            -24.4692305324      -22.3273748050       -0.6208699678  W2        103             0.0000000000
       309       103  TIP3      H2            -23.5861805324      -21.1046848050       -0.7517599678  W2        103             0.0000000000
       310       104  TIP3      OH2           -19.8196405324      -20.9153148050      -13.3200599678  W2        104             0.0000000000
       311       104  TIP3      H1            -19.0758505324      -20.3292648050      -13.4598999678  W2        104             0.0000000000
       312       104  TIP3      H2            -20.5138305324      -20.3467348050      -12.9868199678  W2        104             0.0000000000
       313       105  TIP3      OH2           -35.7449605324      -34.5388948050       -0.7182399678  W2        105             0.0000000000
       314       105  TIP3      H1            -36.6377305324      -34.2003548050       -0.7858399678  W2        105             0.0000000000
       315       105  TIP3      H2            -35.8436805324      -35.3942848050       -0.3001599678  W2        105             0.0000000000
       316       106  TIP3      OH2           -23.4571505324      -26.7223648050      -11.2942899678  W2        106             0.0000000000
       317       106  TIP3      H1            -23.7343905324      -27.4504348050      -10.7381799678  W2        106             0.0000000000
       318       106  TIP3      H2            -22.5298505324      -26.6031648050      -11.0890299678  W2        106             0.0000000000
       319       107  TIP3      OH2           -36.0937605324      -22.7344548050       -2.2832999678  W2        107             0.0000000000
       320       107  TIP3      H1            -35.8767305324      -23.6662148050       -2.3143299678  W2        107             0.0000000000
       321       107  TIP3      H2            -35.8474105324      -22.4599548050       -1.4000199678  W2        107             0.0000000000
       322       108  TIP3      OH2           -30.2323005324      -24.2829548050      -15.0740799678  W2        108             0.0000000000
       323       108  TIP3      H1            -29.9933205324      -25.0311448050      -15.6211899678  W2        108             0.0000000000
       324       108  TIP3      H2            -30.5011705324      -24.6707848050      -14.2412999678  W2        108             0.0000000000
       325       109  TIP3      OH2           -31.2952405324      -24.7125748050      -12.6178199678  W2        109             0.0000000000
       326       109  TIP3      H1            -31.1484405324      -25.2325948050      -11.8277299678  W2        109             0.0000000000
       327       109  TIP3      H2            -31.2980705324      -23.8058148050      -12.3112299678  W2        109             0.0000000000
       328       110  TIP3      OH2           -34.8421305324      -27.4602448050      -12.1072799678  W2        110             0.0000000000
       329       110  TIP3      H1            -35.5282005324      -27.1079948050      -11.5403099678  W2        110             0.0000000000
       330       110  TIP3      H2            -34.3193405324      -26.6972848050      -12.3538499678  W2        110             0.0000000000
       331       111  TIP3      OH2           -27.0106205324      -34.7978648050       -1.8283799678  W2        111             0.0000000000
       332       111  TIP3      H1            -26.3118305324      -34.7239948050       -1.1784099678  W2        111             0.0000000000
       333       111  TIP3      H2            -27.3914805324      -35.6623648050       -1.6740899678  W2        111             0.0000000000
       334       112  TIP3      OH2           -26.2261305324      -35.1456948050      -10.7311499678  W2        112             0.0000000000
       335       112  TIP3      H1            -26.0063005324      -34.6741548050      -11.5346099678  W2        112             0.0000000000
       336       112  TIP3      H2            -25.6677305324      -34.7514348050      -10.0610899678  W2        112             0.0000000000
       337       113  TIP3      OH2           -28.5575205324      -23.0152148050      -11.8683999678  W2        113             0.0000000000
       338       113  TIP3      H1            -29.3739105324      -22.5182448050      -11.8159699678  W2        113             0.0000000000
       339       113  TIP3      H2            -28.0278905324      -22.5398648050      -12.5085199678  W2        113             0.0000000000
       340       114  TIP3      OH2           -29.0261405324      -33.4178148050       -9.8963099678  W2        114             0.0000000000
       341       114  TIP3      H1            -28.2138805324      -32.9134948050       -9.8501399678  W2        114             0.0000000000
       342       114  TIP3      H2            -29.2708405324      -33.5628448050       -8.9823499678  W2        114             0.0000000000
       343       115  TIP3      OH2           -28.4905005324      -32.4315448050       -0.7116499678  W2        115             0.0000000000
       344       115  TIP3      H1            -28.3714705324      -31.8580048050        0.0453900322  W2        115             0.0000000000
       345       115  TIP3      H2            -27.8350405324      -33.1196048050       -0.5968699678  W2        115             0.0000000000
       346       116  TIP3      OH2           -28.1424705324      -36.3365148050       -8.9581999678  W2        116             0.0000000000
       347       116  TIP3      H1            -28.4891205324      -35.7194548050       -8.3137699678  W2        116             0.0000000000
       348       116  TIP3      H2            -27.4837805324      -35.8359448050       -9.4396499678  W2        116             0.0000000000
       349       117  TIP3      OH2           -31.2192105324      -21.9714948050      -11.8867099678  W2        117             0.0000000000
       350       117  TIP3      H1            -31.0583405324      -21.1717448050      -12.3874499678  W2        117             0.0000000000
       351       117  TIP3      H2            -31.4164305324      -21.6648948050      -11.0016499678  W2        117             0.0000000000
       352       118  TIP3      OH2           -32.4847705324      -35.2735748050      -12.2709499678  W2        118             0.0000000000
       353       118  TIP3      H1            -32.5682905324      -34.3852648050      -11.9243099678  W2        118             0.0000000000
       354       118  TIP3      H2            -31.5947405324      -35.5389048050      -12.0392699678  W2        118             0.0000000000
       355       119  TIP3      OH2           -22.2859205324      -34.5245148050        0.1233200322  W2        119             0.0000000000
       356       119  TIP3      H1            -23.2023405324      -34.2623448050        0.0356900322  W2        119             0.0000000000
       357       119  TIP3      H2            -21.9504205324      -34.5276148050       -0.7731499678  W2        119             0.0000000000
       358       120  TIP3      OH2           -23.6838205324      -30.7744148050       -5.7809499678  W2        120             0.0000000000
       359       120  TIP3      H1            -24.4813805324      -31.1893948050       -6.1094499678  W2        120             0.0000000000
       360       120  TIP3      H2            -23.2387105324      -31.4650448050       -5.2898999678  W2        120             0.0000000000
       361       121  TIP3      OH2           -34.2262405324      -24.8463548050      -13.2104999678  W2        121             0.0000000000
       362       121  TIP3      H1            -33.6340905324      -24.1468748050      -12.9342599678  W2        121             0.0000000000
       363       121  TIP3      H2            -33.7669405324      -25.2794048050      -13.9300399678  W2        121             0.0000000000
       364       122  TIP3      OH2           -35.9103205324      -32.1820548050      -14.0945599678  W2        122             0.0000000000
       365       122  TIP3      H1            -35.9550605324      -31.2427448050      -13.9158599678  W2        122             0.0000000000
       366       122  TIP3      H2            -36.7980005324      -32.4175648050      -14.3643499678  W2        122             0.0000000000
       367       123  TIP3      OH2           -22.5973605324      -21.5181648050       -4.1585999678  W2        123             0.0000000000
       368       123  TIP3      H1            -22.7529305324      -20.8397248050       -4.8156699678  W2        123             0.0000000000
       369       123  TIP3      H2            -21.6647205324      -21.4462348050       -3.9555399678  W2        123             0.0000000000
       370       124  TIP3      OH2           -35.1021205324      -37.4003948050       -5.4214599678  W2        124             0.0000000000
       371       124  TIP3      H1            -35.3311405324      -37.3411448050       -6.3489599678  W2        124             0.0000000000
       372       124  TIP3      H2            -35.5447805324      -38.1918448050       -5.1150499678  W2        124             0.0000000000
       373       125  TIP3      OH2           -36.1717905324      -23.4596848050       -9.2608799678  W2        125             0.0000000000
       374       125  TIP3      H1            -37.0039305324      -22.9874148050       -9.2337399678  W2        125             0.0000000000
       375       125  TIP3      H2            -35.6259605324      -22.9499248050       -9.8595699678  W2        125             0.0000000000
       376       126  TIP3      OH2           -36.8834205324      -20.8473148050        2.0689200322  W2        126             0.0000000000
       377       126  TIP3      H1            -36.3432005324      -21.0639148050        2.8288400322  W2        126             0.0000000000
       378       126  TIP3      H2            -37.3646205324      -21.6527148050        1.8791700322  W2        126             0.0000000000
       379       127  TIP3      OH2           -32.2860805324      -21.9278748050        3.6893400322  W2        127             0.0000000000
       380       127  TIP3      H1            -31.5183605324      -22.3867948050        4.0302600322  W2        127             0.0000000000
       381       127  TIP3      H2            -32.3074605324      -22.1538948050        2.7594600322  W2        127             0.0000000000
       382       128  TIP3      OH2           -28.1941205324      -22.4198148050      -14.9354799678  W2        128             0.0000000000
       383       128  TIP3      H1            -28.8380205324      -23.0509548050      -14.6141099678  W2        128             0.0000000000
       384       128  TIP3      H2            -27.4322905324      -22.9510148050      -15.1671299678  W2        128             0.0000000000
       385       129  TIP3      OH2           -25.7092105324      -23.5477648050        2.4184900322  W2        129             0.0000000000
       386       129  TIP3      H1            -26.0602605324      -24.4044648050        2.6615300322  W2        129             0.0000000000
       387       129  TIP3      H2            -24.9828905324      -23.4050948050        3.0253900322  W2        129             0.0000000000
       388       130  TIP3      OH2           -23.5898305324      -22.6028248050      -14.7016799678  W2        130             0.0000000000
       389       130  TIP3      H1            -23.3067905324      -23.3973048050      -14.2489899678  W2        130             0.0000000000
       390       130  TIP3      H2            -22.8500405324      -22.3697248050      -15.2625699678  W2        130             0.0000000000
       391       131  TIP3      OH2           -36.9764705324      -27.0369048050        3.0233500322  W2        131             0.0000000000
       392       131  TIP3      H1            -36.8324205324      -27.9388348050        2.7370200322  W2        131             0.0000000000
       393       131  TIP3      H2            -37.7487305324      -26.7506948050        2.5355800322  W2        131             0.0000000000
       394       132  TIP3      OH2           -32.6351005324      -26.6933348050      -14.8441899678  W2        132             0.0000000000
       395       132  TIP3      H1            -32.5706905324      -27.4873748050      -14.3135499678  W2        132             0.0000000000
       396       132  TIP3      H2            -31.9821805324      -26.8120548050      -15.5339899678  W2        132             0.0000000000
       397       133  TIP3      OH2           -30.3208605324      -27.0670948050        2.4559900322  W2        133             0.0000000000
       398       133  TIP3      H1            -30.6494805324      -26.7962848050        1.5987300322  W2        133             0.0000000000
       399       133  TIP3      H2            -30.1690405324      -28.0081148050        2.3684900322  W2        133             0.0000000000
       400       134  TIP3      OH2           -27.2827605324      -25.6461648050      -15.1083899678  W2        134             0.0000000000
       401       134  TIP3      H1            -27.5513505324      -25.4659548050      -14.2074999678  W2        134             0.0000000000
       402       134  TIP3      H2            -27.4892005324      -26.5715448050      -15.2398099678  W2        134             0.0000000000
       403       135  TIP3      OH2           -24.5863405324      -27.1513648050       -0.1607799678  W2        135             0.0000000000
       404       135  TIP3      H1            -23.8408605324      -26.5629948050       -0.2803799678  W2        135             0.0000000000
       405       135  TIP3      H2            -25.3436605324      -26.5693948050       -0.0974699678  W2        135             0.0000000000
       406       136  TIP3      OH2           -36.1438205324      -29.8365748050        2.4432800322  W2        136             0.0000000000
       407       136  TIP3      H1            -35.7357005324      -30.6939148050        2.3223400322  W2        136             0.0000000000
       408       136  TIP3      H2            -36.4040605324      -29.8224448050        3.3643100322  W2        136             0.0000000000
       409       137  TIP3      OH2           -31.4857205324      -28.7207148050      -12.5383899678  W2        137             0.0000000000
       410       137  TIP3      H1            -31.9455205324      -29.2048848050      -11.8525399678  W2        137             0.0000000000
       411       137  TIP3      H2            -31.2308505324      -29.3891748050      -13.1743399678  W2        137             0.0000000000
       412       138  TIP3      OH2           -32.1967905324      -30.8280048050       -0.1824299678  W2        138             0.0000000000
       413       138  TIP3      H1            -32.8151805324      -30.1533448050        0.0980400322  W2        138             0.0000000000
       414       138  TIP3      H2            -31.8526705324      -30.5066148050       -1.0158099678  W2        138             0.0000000000
       415       139  TIP3      OH2           -30.4146805324      -30.4775348050      -14.2760699678  W2        139             0.0000000000
       416       139  TIP3      H1            -30.5951805324      -30.6324148050      -15.2032399678  W2        139             0.0000000000
       417       139  TIP3      H2            -29.4646305324      -30.3696648050      -14.2312799678  W2        139             0.0000000000
       418       140  TIP3      OH2           -27.1769705324      -28.3564748050        3.0950500322  W2        140             0.0000000000
       419       140  TIP3      H1            -26.2238505324      -28.2725648050        3.0676500322  W2        140             0.0000000000
       420       140  TIP3      H2            -27.3375105324      -29.0682948050        3.7145400322  W2        140             0.0000000000
       421       141  TIP3      OH2           -21.0248505324      -28.1231148050      -14.8302599678  W2        141             0.0000000000
       422       141  TIP3      H1            -21.2983705324      -28.5475648050      -15.6434299678  W2        141             0.0000000000
       423       141  TIP3      H2            -20.9854405324      -27.1916648050      -15.0472199678  W2        141             0.0000000000
       424       142  TIP3      OH2           -31.8574205324      -33.4729248050        0.8998800322  W2        142             0.0000000000
       425       142  TIP3      H1            -31.7073305324      -34.2017948050        0.2978500322  W2        142             0.0000000000
       426       142  TIP3      H2            -31.8551805324      -32.6957548050        0.3411000322  W2        142             0.0000000000
       427       143  TIP3      OH2           -31.4448505324      -35.1033448050       -1.6073799678  W2        143             0.0000000000
       428       143  TIP3      H1            -30.9091005324      -34.6516748050       -2.2594499678  W2        143             0.0000000000
       429       143  TIP3      H2            -32.2968905324      -35.2113648050       -2.0299699678  W2        143             0.0000000000
       430       144  TIP3      OH2           -29.8630105324      -29.6637248050       -1.3678599678  W2        144             0.0000000000
       431       144  TIP3      H1            -29.1125305324      -29.8199748050       -1.9410799678  W2        144             0.0000000000
       432       144  TIP3      H2            -30.2021805324      -28.8120648050       -1.6433099678  W2        144             0.0000000000
       433       145  TIP3      OH2           -25.4473905324      -31.8485448050        3.6606700322  W2        145             0.0000000000
       434       145  TIP3      H1            -25.2552605324      -32.7796048050        3.5491200322  W2        145             0.0000000000
       435       145  TIP3      H2            -24.5897605324      -31.4235948050        3.6502100322  W2        145             0.0000000000
       436       146  TIP3      OH2           -24.1306705324      -29.0600248050        1.7379400322  W2        146             0.0000000000
       437       146  TIP3      H1            -24.4121705324      -28.3505648050        1.1603200322  W2        146             0.0000000000
       438       146  TIP3      H2            -23.1882405324      -29.1327248050        1.5870600322  W2        146             0.0000000000
       439       147  TIP3      OH2           -33.3787905324      -32.2745748050        2.8114400322  W2        147             0.0000000000
       440       147  TIP3      H1            -34.1458905324      -32.8070948050        2.6012000322  W2        147             0.0000000000
       441       147  TIP3      H2            -32.6998905324      -32.5845348050        2.2120700322  W2        147             0.0000000000
       442       148  TIP3      OH2           -30.6393005324      -37.6467748050       -1.1760199678  W2        148             0.0000000000
       443       148  TIP3      H1            -30.7373405324      -36.7004548050       -1.2813999678  W2        148             0.0000000000
       444       148  TIP3      H2            -31.3816805324      -38.0193948050       -1.6516699678  W2        148             0.0000000000
       445       149  TIP3      OH2           -29.3752505324      -33.3252348050        2.3878200322  W2        149             0.0000000000
       446       149  TIP3      H1            -29.6107105324      -33.5445648050        3.2893100322  W2        149             0.0000000000
       447       149  TIP3      H2            -30.1585605324      -33.5321148050        1.8780700322  W2        149             0.0000000000
       448       150  TIP3      OH2           -26.6595905324      -34.1978848050        1.4631700322  W2        150             0.0000000000
       449       150  TIP3      H1            -27.6070505324      -34.1659148050        1.5955000322  W2        150             0.0000000000
       450       150  TIP3      H2            -26.3469205324      -34.8231748050        2.1169900322  W2        150             0.0000000000
       451       151  TIP3      OH2           -25.0254405324      -35.5637748050        3.4683600322  W2        151             0.0000000000
       452       151  TIP3      H1            -25.1222605324      -36.5160448050        3.4625500322  W2        151             0.0000000000
       453       151  TIP3      H2            -25.3471305324      -35.2950948050        4.3289100322  W2        151             0.0000000000
       454       152  TIP3      OH2           -35.1985105324      -34.3541948050        2.5159100322  W2        152             0.0000000000
       455       152  TIP3      H1            -34.9867705324      -35.0605848050        1.9056600322  W2        152             0.0000000000
       456       152  TIP3      H2            -35.3097605324      -34.7915948050        3.3600300322  W2        152             0.0000000000
       457       153  TIP3      OH2           -30.4174905324      -38.3530348050        1.4952600322  W2        153             0.0000000000
       458       153  TIP3      H1            -29.7056505324      -38.9928148050        1.4811700322  W2        153             0.0000000000
       459       153  TIP3      H2            -30.5184505324      -38.0862048050        0.5815700322  W2        153             0.0000000000
       460       154  TIP3      OH2           -30.0637405324      -36.6701948050        3.5488900322  W2        154             0.0000000000
       461       154  TIP3      H1            -30.1955205324      -37.1458148050        2.7287400322  W2        154             0.0000000000
       462       154  TIP3      H2            -30.6630005324      -35.9258348050        3.4936000322  W2        154             0.0000000000
       463       155  TIP3      OH2           -30.5175105324      -19.7871648050      -13.2747099678  W2        155             0.0000000000
       464       155  TIP3      H1            -29.5844405324      -19.6292948050      -13.1308699678  W2        155             0.0000000000
       465       155  TIP3      H2            -30.7816305324      -19.1118648050      -13.8995599678  W2        155             0.0000000000
       466       156  TIP3      OH2           -36.9490205324      -25.1507848050      -13.7918999678  W2        156             0.0000000000
       467       156  TIP3      H1            -36.0351005324      -25.0718948050      -13.5185099678  W2        156             0.0000000000
       468       156  TIP3      H2            -36.9417105324      -25.8378248050      -14.4583399678  W2        156             0.0000000000
       469       157  TIP3      OH2           -38.2999605324      -19.7579348050       -8.7145099678  W2        157             0.0000000000
       470       157  TIP3      H1            -38.9472505324      -20.2197648050       -9.2473899678  W2        157             0.0000000000
       471       157  TIP3      H2            -37.9455005324      -20.4296048050       -8.1318899678  W2        157             0.0000000000
       472       158  TIP3      OH2           -37.4300405324      -21.6772348050       -6.9098899678  W2        158             0.0000000000
       473       158  TIP3      H1            -37.7643605324      -22.5575048050       -6.7378699678  W2        158             0.0000000000
       474       158  TIP3      H2            -37.2078005324      -21.3317348050       -6.0453299678  W2        158             0.0000000000
       475       159  TIP3      OH2           -19.8815605324      -20.8675948050       -3.9294099678  W2        159             0.0000000000
       476       159  TIP3      H1            -19.9028905324      -20.6827548050       -2.9904699678  W2        159             0.0000000000
       477       159  TIP3      H2            -19.1909405324      -20.2991948050       -4.2702699678  W2        159             0.0000000000
       478       160  TIP3      OH2           -20.3182705324      -21.3004848050       -1.0074999678  W2        160             0.0000000000
       479       160  TIP3      H1            -20.8054005324      -22.0360748050       -1.3787599678  W2        160             0.0000000000
       480       160  TIP3      H2            -19.7690005324      -21.6940948050       -0.3295599678  W2        160             0.0000000000
       481       161  TIP3      OH2           -21.8675405324      -25.5106748050        3.6305300322  W2        161             0.0000000000
       482       161  TIP3      H1            -22.7334305324      -25.6157048050        4.0247600322  W2        161             0.0000000000
       483       161  TIP3      H2            -21.4909505324      -24.7523448050        4.0770000322  W2        161             0.0000000000
       484       162  TIP3      OH2           -20.5665705324      -27.2543048050      -10.8552199678  W2        162             0.0000000000
       485       162  TIP3      H1            -19.7164305324      -26.8332148050      -10.7280599678  W2        162             0.0000000000
       486       162  TIP3      H2            -20.5610605324      -27.9942948050      -10.2480799678  W2        162             0.0000000000
       487       163  TIP3      OH2           -20.1720105324      -29.2005648050       -9.0316499678  W2        163             0.0000000000
       488       163  TIP3      H1            -20.8985505324      -29.6803048050       -8.6338899678  W2        163             0.0000000000
       489       163  TIP3      H2            -19.5906805324      -28.9950948050       -8.2994899678  W2        163             0.0000000000
       490       164  TIP3      OH2           -20.4128905324      -26.4158148050       -4.0838899678  W2        164             0.0000000000
       491       164  TIP3      H1            -19.5794705324      -26.7938148050       -4.3645299678  W2        164             0.0000000000
       492       164  TIP3      H2            -20.3008605324      -25.4726948050       -4.2029799678  W2        164             0.0000000000
       493       165  TIP3      OH2           -21.9266605324      -23.5380648050       -1.7770499678  W2        165             0.0000000000
       494       165  TIP3      H1            -22.5741305324      -23.2129148050       -1.1515299678  W2        165             0.0000000000
       495       165  TIP3      H2            -22.4442605324      -23.9782948050       -2.4512199678  W2        165             0.0000000000
       496       166  TIP3      OH2           -19.9037005324      -29.2997148050      -12.6405199678  W2        166             0.0000000000
       497       166  TIP3      H1            -20.4255905324      -28.9433048050      -13.3594299678  W2        166             0.0000000000
       498       166  TIP3      H2            -19.9367805324      -28.6249348050      -11.9624299678  W2        166             0.0000000000
       499       167  TIP3      OH2           -21.5548005324      -32.0601548050      -14.0898099678  W2        167             0.0000000000
       500       167  TIP3      H1            -21.4583605324      -31.3934548050      -14.7698399678  W2        167             0.0000000000
       501       167  TIP3      H2            -21.6948405324      -32.8755248050      -14.5712599678  W2        167             0.0000000000
       502       168  TIP3      OH2           -22.3853305324      -30.6799148050       -8.4687799678  W2        168             0.0000000000
       503       168  TIP3      H1            -22.5354505324      -31.6250548050       -8.4889999678  W2        168             0.0000000000
       504       168  TIP3      H2            -22.7388805324      -30.3987748050       -7.6248699678  W2        168             0.0000000000
       505       169  TIP3      OH2           -37.3500905324      -28.6016948050       -4.4583999678  W2        169             0.0000000000
       506       169  TIP3      H1            -37.1658005324      -28.6835248050       -5.3941099678  W2        169             0.0000000000
       507       169  TIP3      H2            -36.5008005324      -28.7259948050       -4.0347599678  W2        169             0.0000000000
       508       170  TIP3      OH2           -21.5290405324      -28.7095848050        1.1700500322  W2        170             0.0000000000
       509       170  TIP3      H1            -20.9463105324      -29.4443548050        1.3617700322  W2        170             0.0000000000
       510       170  TIP3      H2            -20.9651105324      -27.9375548050        1.2166300322  W2        170             0.0000000000
       511       171  TIP3      OH2           -20.0323305324      -30.8070048050        1.8545900322  W2        171             0.0000000000
       512       171  TIP3      H1            -20.8956605324      -31.1857948050        1.6890600322  W2        171             0.0000000000
       513       171  TIP3      H2            -19.4279605324      -31.5455248050        1.7801700322  W2        171             0.0000000000
       514       172  TIP3      OH2           -22.3074205324      -34.6521748050      -14.9722599678  W2        172             0.0000000000
       515       172  TIP3      H1            -21.6968405324      -35.0234948050      -14.3354399678  W2        172             0.0000000000
       516       172  TIP3      H2            -23.1442705324      -35.0734848050      -14.7762599678  W2        172             0.0000000000
       517       173  TIP3      OH2           -22.6748505324      -33.0973348050      -10.0062699678  W2        173             0.0000000000
       518       173  TIP3      H1            -22.3951405324      -34.0042948050       -9.8820999678  W2        173             0.0000000000
       519       173  TIP3      H2            -21.9156805324      -32.6631848050      -10.3953499678  W2        173             0.0000000000
       520       174  TIP3      OH2           -22.0630205324      -32.5155948050       -4.5703799678  W2        174             0.0000000000
       521       174  TIP3      H1            -21.1302205324      -32.3036048050       -4.6047799678  W2        174             0.0000000000
       522       174  TIP3      H2            -22.2982705324      -32.4143848050       -3.6480799678  W2        174             0.0000000000
       523       175  TIP3      OH2           -22.0338305324      -31.7790648050       -1.7944399678  W2        175             0.0000000000
       524       175  TIP3      H1            -22.8767005324      -31.5110248050       -1.4284599678  W2        175             0.0000000000
       525       175  TIP3      H2            -21.5914005324      -30.9568748050       -2.0053299678  W2        175             0.0000000000
       526       176  TIP3      OH2           -37.7526105324      -33.3311948050        1.6824800322  W2        176             0.0000000000
       527       176  TIP3      H1            -36.8331205324      -33.4533648050        1.9187900322  W2        176             0.0000000000
       528       176  TIP3      H2            -38.2021605324      -34.0812248050        2.0718300322  W2        176             0.0000000000
       529       177  TIP3      OH2           -19.7506705324      -37.7990448050        3.5590600322  W2        177             0.0000000000
       530       177  TIP3      H1            -19.4009705324      -38.4526948050        2.9535300322  W2        177             0.0000000000
       531       177  TIP3      H2            -19.6037205324      -36.9616348050        3.1193200322  W2        177             0.0000000000
       532       178  TIP3      OH2           -22.0613705324      -35.8344048050       -9.9580699678  W2        178             0.0000000000
       533       178  TIP3      H1            -21.8788705324      -36.2832548050       -9.1325699678  W2        178             0.0000000000
       534       178  TIP3      H2            -22.6610805324      -36.4189648050      -10.4216099678  W2        178             0.0000000000
       535       179  TIP3      OH2           -36.5313605324      -35.0190348050       -5.4262299678  W2        179             0.0000000000
       536       179  TIP3      H1            -36.0862005324      -35.8107848050       -5.1242599678  W2        179             0.0000000000
       537       179  TIP3      H2            -36.0650605324      -34.3025148050       -4.9956699678  W2        179             0.0000000000
       538       180  TIP3      OH2           -38.2273305324      -32.0197348050       -4.3572099678  W2        180             0.0000000000
       539       180  TIP3      H1            -37.7353505324      -32.2406848050       -5.1480099678  W2        180             0.0000000000
       540       180  TIP3      H2            -37.8652405324      -31.1793948050       -4.0762599678  W2        180             0.0000000000
       541       181  TIP3      OH2           -20.2309505324      -35.6895848050        1.9081900322  W2        181             0.0000000000
       542       181  TIP3      H1            -21.1483805324      -35.4188748050        1.8725400322  W2        181             0.0000000000
       543       181  TIP3      H2            -20.1080105324      -36.2247448050        1.1241600322  W2        181             0.0000000000
       544       182  TIP3      OH2           -20.1947505324      -35.7665948050      -13.4300399678  W2        182             0.0000000000
       545       182  TIP3      H1            -19.7824905324      -36.4880248050      -13.9052399678  W2        182             0.0000000000
       546       182  TIP3      H2            -19.5131005324      -35.0971348050      -13.3716099678  W2        182             0.0000000000
       547       183  TIP3      OH2           -37.9136805324      -35.7618248050      -10.3029699678  W2        183             0.0000000000
       548       183  TIP3      H1            -38.8388405324      -35.5531648050      -10.4324199678  W2        183             0.0000000000
       549       183  TIP3      H2            -37.4596905324      -35.2777448050      -10.9927399678  W2        183             0.0000000000
       550       184  TIP3      OH2           -23.1429605324      -20.7776548050       -8.3572299678  W2        184             0.0000000000
       551       184  TIP3      H1            -22.4906705324      -21.1254448050       -8.9653199678  W2        184             0.0000000000
       552       184  TIP3      H2            -22.6325805324      -20.2893348050       -7.7112599678  W2        184             0.0000000000
       553       185  TIP3      OH2           -37.9501405324      -37.0239248050       -1.9587199678  W2        185             0.0000000000
       554       185  TIP3      H1            -38.6150905324      -37.2698948050       -1.3156299678  W2        185             0.0000000000
       555       185  TIP3      H2            -38.3930105324      -36.4018848050       -2.5359199678  W2        185             0.0000000000
       556       186  TIP3      OH2           -35.7582105324      -23.8485148050        2.1858600322  W2        186             0.0000000000
       557       186  TIP3      H1            -36.5789605324      -23.6738648050        1.7253300322  W2        186             0.0000000000
       558       186  TIP3      H2            -36.0104305324      -23.9220448050        3.1063000322  W2        186             0.0000000000
       559       187  TIP3      OH2           -32.8039205324      -22.8743948050       -1.5557399678  W2        187             0.0000000000
       560       187  TIP3      H1            -33.2288105324      -22.0645448050       -1.8382799678  W2        187             0.0000000000
       561       187  TIP3      H2            -31.8996405324      -22.7889848050       -1.8577599678  W2        187             0.0000000000
       562       188  TIP3      OH2           -28.4927805324      -21.4753948050        1.4036300322  W2        188             0.0000000000
       563       188  TIP3      H1            -28.3080305324      -21.8087848050        2.2816600322  W2        188             0.0000000000
       564       188  TIP3      H2            -27.6463305324      -21.1655348050        1.0815500322  W2        188             0.0000000000
       565       189  TIP3      OH2           -26.1477405324      -20.1895048050        0.6477700322  W2        189             0.0000000000
       566       189  TIP3      H1            -25.4708505324      -20.8222748050        0.4076900322  W2        189             0.0000000000
       567       189  TIP3      H2            -25.8258605324      -19.7884548050        1.4551000322  W2        189             0.0000000000
       568       190  TIP3      OH2           -21.2303605324      -37.5999548050       -0.2727299678  W2        190             0.0000000000
       569       190  TIP3      H1            -22.0430105324      -37.2749248050       -0.6602599678  W2        190             0.0000000000
       570       190  TIP3      H2            -20.9975105324      -38.3601048050       -0.8058199678  W2        190             0.0000000000
       571       191  TIP3      OH2           -35.4022505324      -19.6180048050       -1.5082099678  W2        191             0.0000000000
       572       191  TIP3      H1            -36.1226105324      -19.1779048050       -1.9594399678  W2        191             0.0000000000
       573       191  TIP3      H2            -35.7678505324      -19.8685348050       -0.6598099678  W2        191             0.0000000000
       574       192  TIP3      OH2           -32.9349905324      -20.0176148050       -2.4784899678  W2        192             0.0000000000
       575       192  TIP3      H1            -33.7997705324      -19.9457648050       -2.0744799678  W2        192             0.0000000000
       576       192  TIP3      H2            -32.9900905324      -19.4708848050       -3.2622399678  W2        192             0.0000000000
       577       193  TIP3      OH2           -28.2244305324      -20.1297248050       -3.3028899678  W2        193             0.0000000000
       578       193  TIP3      H1            -28.6810305324      -19.6007548050       -3.9570499678  W2        193             0.0000000000
       579       193  TIP3      H2            -28.0616305324      -19.5265848050       -2.5776599678  W2        193             0.0000000000
       580       194  TIP3      OH2           -25.8968005324      -21.2517648050       -2.3578599678  W2        194             0.0000000000
       581       194  TIP3      H1            -26.8014305324      -21.0867448050       -2.6236499678  W2        194             0.0000000000
       582       194  TIP3      H2            -25.4679405324      -20.3985448050       -2.4235199678  W2        194             0.0000000000
       583       195  TIP3      OH2           -23.2926105324      -19.6818548050       -2.0630799678  W2        195             0.0000000000
       584       195  TIP3      H1            -23.4744105324      -18.7659648050       -2.2735899678  W2        195             0.0000000000
       585       195  TIP3      H2            -23.1158305324      -20.0921448050       -2.9096199678  W2        195             0.0000000000
       586       196  TIP3      OH2           -35.9874405324      -20.9947548050       -4.5980299678  W2        196             0.0000000000
       587       196  TIP3      H1            -36.0058405324      -21.4202448050       -3.7407999678  W2        196             0.0000000000
       588       196  TIP3      H2            -35.1826505324      -21.3132548050       -5.0068099678  W2        196             0.0000000000
       589       197  TIP3      OH2           -33.8461305324      -22.2848848050       -5.9430399678  W2        197             0.0000000000
       590       197  TIP3      H1            -34.0650605324      -23.2011448050       -5.7734399678  W2        197             0.0000000000
       591       197  TIP3      H2            -33.0219105324      -22.1448448050       -5.4768999678  W2        197             0.0000000000
       592       198  TIP3      OH2           -31.3088805324      -21.8149548050       -5.0942399678  W2        198             0.0000000000
       593       198  TIP3      H1            -31.0963105324      -22.7030548050       -5.3811499678  W2        198             0.0000000000
       594       198  TIP3      H2            -31.2443705324      -21.8491848050       -4.1398399678  W2        198             0.0000000000
       595       199  TIP3      OH2           -27.8005105324      -36.1508948050       -5.9499099678  W2        199             0.0000000000
       596       199  TIP3      H1            -28.4748305324      -36.7803348050       -5.6943299678  W2        199             0.0000000000
       597       199  TIP3      H2            -27.2365905324      -36.6350048050       -6.5531199678  W2        199             0.0000000000
       598       200  TIP3      OH2           -22.6577905324      -38.0434948050       -5.8371999678  W2        200             0.0000000000
       599       200  TIP3      H1            -22.0540305324      -37.4959548050       -6.3390999678  W2        200             0.0000000000
       600       200  TIP3      H2            -23.5275905324      -37.7244548050       -6.0777899678  W2        200             0.0000000000
       601       201  TIP3      OH2           -20.9307505324      -36.9046248050       -7.5041099678  W2        201             0.0000000000
       602       201  TIP3      H1            -20.3190005324      -37.4190548050       -8.0307499678  W2        201             0.0000000000
       603       201  TIP3      H2            -20.5484105324      -36.0274148050       -7.4806699678  W2        201             0.0000000000
       604       202  TIP3      OH2           -35.4737605324      -37.5168648050       -8.1279199678  W2        202             0.0000000000
       605       202  TIP3      H1            -36.2507805324      -37.7513748050       -8.6353299678  W2        202             0.0000000000
       606       202  TIP3      H2            -34.9434005324      -38.3136548050       -8.1191199678  W2        202             0.0000000000
       607       203  TIP3      OH2           -36.6374205324      -37.7190548050      -12.3243099678  W2        203             0.0000000000
       608       203  TIP3      H1            -36.1983505324      -37.1080048050      -12.9159599678  W2        203             0.0000000000
       609       203  TIP3      H2            -37.2711805324      -37.1806448050      -11.8503099678  W2        203             0.0000000000
       610       204  TIP3      OH2           -30.8945005324      -37.5901548050       -8.3146099678  W2        204             0.0000000000
       611       204  TIP3      H1            -30.0201605324      -37.2017248050       -8.3441799678  W2        204             0.0000000000
       612       204  TIP3      H2            -31.0304205324      -37.8053748050       -7.3918899678  W2        204             0.0000000000
       613       205  TIP3      OH2           -25.3376605324      -37.5601748050       -6.6654399678  W2        205             0.0000000000
       614       205  TIP3      H1            -25.2615005324      -37.4650148050       -7.6148399678  W2        205             0.0000000000
       615       205  TIP3      H2            -25.6127405324      -38.4678848050       -6.5365299678  W2        205             0.0000000000
       616       206  TIP3      OH2           -23.9844005324      -37.5343948050      -10.9729399678  W2        206             0.0000000000
       617       206  TIP3      H1            -24.6872905324      -36.9194748050      -11.1827999678  W2        206             0.0000000000
       618       206  TIP3      H2            -24.4292605324      -38.3717248050      -10.8418499678  W2        206             0.0000000000
       619       207  TIP3      OH2           -36.7364705324      -21.7708348050      -11.4267999678  W2        207             0.0000000000
       620       207  TIP3      H1            -37.4214805324      -21.8089448050      -12.0942899678  W2        207             0.0000000000
       621       207  TIP3      H2            -36.7327505324      -20.8580748050      -11.1385899678  W2        207             0.0000000000
       622       208  TIP3      OH2           -34.7765105324      -35.8029048050      -13.8818999678  W2        208             0.0000000000
       623       208  TIP3      H1            -34.2851705324      -36.4326648050      -14.4093499678  W2        208             0.0000000000
       624       208  TIP3      H2            -34.1528805324      -35.5069648050      -13.2187799678  W2        208             0.0000000000
       625       209  TIP3      OH2           -29.7505005324      -35.5097548050      -11.4248499678  W2        209             0.0000000000
       626       209  TIP3      H1            -29.5723705324      -36.1564348050      -10.7419899678  W2        209             0.0000000000
       627       209  TIP3      H2            -29.8038805324      -34.6759848050      -10.9577399678  W2        209             0.0000000000
       628       210  TIP3      OH2           -27.8721205324      -20.5613448050      -13.0291799678  W2        210             0.0000000000
       629       210  TIP3      H1            -27.0061005324      -20.1946048050      -13.2073599678  W2        210             0.0000000000
       630       210  TIP3      H2            -28.1188405324      -21.0005448050      -13.8430999678  W2        210             0.0000000000
       631       211  TIP3      OH2           -21.1631605324      -20.9983148050      -10.3500699678  W2        211             0.0000000000
       632       211  TIP3      H1            -21.3574505324      -21.7461048050      -10.9151099678  W2        211             0.0000000000
       633       211  TIP3      H2            -21.2021505324      -20.2403048050      -10.9332799678  W2        211             0.0000000000
       634       212  TIP3      OH2           -35.5159605324      -37.0026748050        1.3897000322  W2        212             0.0000000000
       635       212  TIP3      H1            -35.8821405324      -37.7684148050        1.8321700322  W2        212             0.0000000000
       636       212  TIP3      H2            -34.6031105324      -36.9736548050        1.6762100322  W2        212             0.0000000000
       637       213  TIP3      OH2           -33.5428805324      -37.6522348050        2.9254100322  W2        213             0.0000000000
       638       213  TIP3      H1            -32.6445205324      -37.9262148050        2.7407500322  W2        213             0.0000000000
       639       213  TIP3      H2            -33.9295705324      -38.3946348050        3.3896700322  W2        213             0.0000000000
       640       214  TIP3      OH2           -34.9183505324      -20.8507548050      -14.4015899678  W2        214             0.0000000000
       641       214  TIP3      H1            -35.1858905324      -20.5644648050      -13.5282799678  W2        214             0.0000000000
       642       214  TIP3      H2            -34.1470905324      -21.3968348050      -14.2493399678  W2        214             0.0000000000
       643       215  TIP3      OH2           -25.1216505324      -38.3197048050        3.1076900322  W2        215             0.0000000000
       644       215  TIP3      H1            -25.0449305324      -38.7456348050        3.9614600322  W2        215             0.0000000000
       645       215  TIP3      H2            -24.2279905324      -38.3062348050        2.7650400322  W2        215             0.0000000000
       646       216  TIP3      OH2           -21.9455405324      -22.2470748050        1.8001100322  W2        216             0.0000000000
       647       216  TIP3      H1            -22.7273505324      -22.4332748050        1.2801700322  W2        216             0.0000000000
       648       216  TIP3      H2            -22.0175505324      -21.3176448050        2.0173600322  W2        216             0.0000000000
       649       217  TIP3      OH2            -7.5395005324      -28.3606348050       -8.1691699678  W2        217             0.0000000000
       650       217  TIP3      H1             -7.4503905324      -27.4168148050       -8.3014599678  W2        217             0.0000000000
       651       217  TIP3      H2             -8.1777405324      -28.6359948050       -8.8272299678  W2        217             0.0000000000
       652       218  TIP3      OH2            -8.6063705324      -29.1055648050       -4.7503499678  W2        218             0.0000000000
       653       218  TIP3      H1             -8.6446205324      -29.7519348050       -4.0453899678  W2        218             0.0000000000
       654       218  TIP3      H2             -8.9287205324      -29.5721248050       -5.5214799678  W2        218             0.0000000000
       655       219  TIP3      OH2           -16.2378705324      -29.4913548050       -3.1573599678  W2        219             0.0000000000
       656       219  TIP3      H1            -16.1966605324      -30.1170248050       -2.4341199678  W2        219             0.0000000000
       657       219  TIP3      H2            -15.5351005324      -28.8674948050       -2.9753199678  W2        219             0.0000000000
       658       220  TIP3      OH2            -4.9003505324      -26.1665248050       -6.4488399678  W2        220             0.0000000000
       659       220  TIP3      H1             -5.3410805324      -26.8869248050       -5.9982799678  W2        220             0.0000000000
       660       220  TIP3      H2             -4.9133805324      -25.4458048050       -5.8190699678  W2        220             0.0000000000
       661       221  TIP3      OH2           -15.3145605324      -25.0414648050       -4.6224499678  W2        221             0.0000000000
       662       221  TIP3      H1            -15.6840405324      -25.8434148050       -4.9920199678  W2        221             0.0000000000
       663       221  TIP3      H2            -14.3734505324      -25.2099748050       -4.5761099678  W2        221             0.0000000000
       664       222  TIP3      OH2           -18.7045105324      -31.3812048050       -9.2295699678  W2        222             0.0000000000
       665       222  TIP3      H1            -19.1521705324      -30.5353348050       -9.2479199678  W2        222             0.0000000000
       666       222  TIP3      H2            -19.2653905324      -31.9607848050       -9.7450599678  W2        222             0.0000000000
       667       223  TIP3      OH2           -17.9939005324      -29.2192448050       -7.1037699678  W2        223             0.0000000000
       668       223  TIP3      H1            -17.7805505324      -29.9890848050       -6.5764699678  W2        223             0.0000000000
       669       223  TIP3      H2            -17.2561405324      -29.1295748050       -7.7070099678  W2        223             0.0000000000
       670       224  TIP3      OH2            -7.7888005324      -21.0623548050       -6.2367999678  W2        224             0.0000000000
       671       224  TIP3      H1             -7.1691605324      -21.7388848050       -6.5098799678  W2        224             0.0000000000
       672       224  TIP3      H2             -7.9970605324      -21.2802748050       -5.3283099678  W2        224             0.0000000000
       673       225  TIP3      OH2           -10.2169305324      -26.6734248050       -4.3442499678  W2        225             0.0000000000
       674       225  TIP3      H1             -9.9131405324      -27.3592848050       -4.9388399678  W2        225             0.0000000000
       675       225  TIP3      H2             -9.4955305324      -26.5545548050       -3.7264499678  W2        225             0.0000000000
       676       226  TIP3      OH2            -1.5539505324      -35.0718948050       -3.4836299678  W2        226             0.0000000000
       677       226  TIP3      H1             -1.5047305324      -34.4617748050       -2.7477199678  W2        226             0.0000000000
       678       226  TIP3      H2             -1.1284405324      -34.6108048050       -4.2065199678  W2        226             0.0000000000
       679       227  TIP3      OH2            -7.0762305324      -32.2791848050       -4.0167699678  W2        227             0.0000000000
       680       227  TIP3      H1             -6.9336405324      -33.2254848050       -3.9966099678  W2        227             0.0000000000
       681       227  TIP3      H2             -7.1823305324      -32.0722048050       -4.9452799678  W2        227             0.0000000000
       682       228  TIP3      OH2           -13.9214005324      -34.1775448050       -6.7442899678  W2        228             0.0000000000
       683       228  TIP3      H1            -13.8782905324      -33.3176948050       -7.1626599678  W2        228             0.0000000000
       684       228  TIP3      H2            -14.3789905324      -34.7300748050       -7.3779699678  W2        228             0.0000000000
       685       229  TIP3      OH2            -6.1991305324      -34.0469848050       -8.3434599678  W2        229             0.0000000000
       686       229  TIP3      H1             -5.5527005324      -34.3756648050       -7.7186999678  W2        229             0.0000000000
       687       229  TIP3      H2             -5.6891905324      -33.5290848050       -8.9663199678  W2        229             0.0000000000
       688       230  TIP3      OH2           -17.3012505324      -31.7809648050       -5.9821499678  W2        230             0.0000000000
       689       230  TIP3      H1            -16.6475905324      -32.3307948050       -5.5501399678  W2        230             0.0000000000
       690       230  TIP3      H2            -17.2773205324      -32.0550648050       -6.8989499678  W2        230             0.0000000000
       691       231  TIP3      OH2           -12.1448005324      -30.2308348050       -6.7669999678  W2        231             0.0000000000
       692       231  TIP3      H1            -11.5287005324      -30.7572948050       -6.2575999678  W2        231             0.0000000000
       693       231  TIP3      H2            -12.7309205324      -30.8709648050       -7.1706399678  W2        231             0.0000000000
       694       232  TIP3      OH2            -1.1624905324      -33.5939748050       -1.2476499678  W2        232             0.0000000000
       695       232  TIP3      H1             -1.8510305324      -32.9359048050       -1.3429899678  W2        232             0.0000000000
       696       232  TIP3      H2             -1.1470305324      -33.7911848050       -0.3111099678  W2        232             0.0000000000
       697       233  TIP3      OH2           -15.1112105324      -35.2597048050       -2.6702099678  W2        233             0.0000000000
       698       233  TIP3      H1            -15.3300405324      -34.7296448050       -3.4366099678  W2        233             0.0000000000
       699       233  TIP3      H2            -15.7791205324      -35.0331548050       -2.0230699678  W2        233             0.0000000000
       700       234  TIP3      OH2            -7.7422305324      -25.7595948050       -9.1262999678  W2        234             0.0000000000
       701       234  TIP3      H1             -8.0377205324      -26.0823648050       -9.9776099678  W2        234             0.0000000000
       702       234  TIP3      H2             -8.0664505324      -24.8599248050       -9.0850399678  W2        234             0.0000000000
       703       235  TIP3      OH2           -12.5420705324      -27.5841348050       -2.3828399678  W2        235             0.0000000000
       704       235  TIP3      H1            -13.2821605324      -26.9859848050       -2.2793199678  W2        235             0.0000000000
       705       235  TIP3      H2            -11.8281205324      -27.0301748050       -2.6984799678  W2        235             0.0000000000
       706       236  TIP3      OH2            -4.4352905324      -34.7560548050       -6.3628699678  W2        236             0.0000000000
       707       236  TIP3      H1             -4.6504905324      -35.5217148050       -5.8302699678  W2        236             0.0000000000
       708       236  TIP3      H2             -3.7795505324      -34.2835948050       -5.8500199678  W2        236             0.0000000000
       709       237  TIP3      OH2           -15.5174805324      -33.3675248050       -4.7179899678  W2        237             0.0000000000
       710       237  TIP3      H1            -14.9038505324      -32.7347648050       -4.3447499678  W2        237             0.0000000000
       711       237  TIP3      H2            -15.0054105324      -33.8400248050       -5.3742999678  W2        237             0.0000000000
       712       238  TIP3      OH2           -14.1346405324      -25.6198348050       -1.5956899678  W2        238             0.0000000000
       713       238  TIP3      H1            -14.1398805324      -24.7404848050       -1.9737599678  W2        238             0.0000000000
       714       238  TIP3      H2            -14.9882305324      -25.7034248050       -1.1706999678  W2        238             0.0000000000
       715       239  TIP3      OH2           -18.0135505324      -25.9490448050      -10.8137599678  W2        239             0.0000000000
       716       239  TIP3      H1            -18.2854605324      -25.7199448050      -11.7024699678  W2        239             0.0000000000
       717       239  TIP3      H2            -17.9679805324      -25.1111648050      -10.3532299678  W2        239             0.0000000000
       718       240  TIP3      OH2            -4.3885805324      -24.3274548050       -4.1009099678  W2        240             0.0000000000
       719       240  TIP3      H1             -5.3302105324      -24.2690648050       -3.9392199678  W2        240             0.0000000000
       720       240  TIP3      H2             -4.1119705324      -23.4214048050       -4.2379399678  W2        240             0.0000000000
       721       241  TIP3      OH2            -4.0878805324      -36.0409248050       -2.6835199678  W2        241             0.0000000000
       722       241  TIP3      H1             -4.8239605324      -35.4302148050       -2.7213899678  W2        241             0.0000000000
       723       241  TIP3      H2             -3.4044805324      -35.6260248050       -3.2098799678  W2        241             0.0000000000
       724       242  TIP3      OH2           -11.0847405324      -37.9541948050       -5.2177199678  W2        242             0.0000000000
       725       242  TIP3      H1            -11.2023205324      -38.9025948050       -5.2718899678  W2        242             0.0000000000
       726       242  TIP3      H2            -11.9397305324      -37.6215848050       -4.9446099678  W2        242             0.0000000000
       727       243  TIP3      OH2            -6.1364605324      -22.5461048050       -7.4757499678  W2        243             0.0000000000
       728       243  TIP3      H1             -5.7112305324      -23.2533148050       -7.9607899678  W2        243             0.0000000000
       729       243  TIP3      H2             -5.8194605324      -21.7448348050       -7.8925299678  W2        243             0.0000000000
       730       244  TIP3      OH2            -4.9768105324      -24.6452548050       -8.9670899678  W2        244             0.0000000000
       731       244  TIP3      H1             -5.2343305324      -25.3352448050       -9.5784999678  W2        244             0.0000000000
       732       244  TIP3      H2             -4.9057305324      -25.0881348050       -8.1214999678  W2        244             0.0000000000
       733       245  TIP3      OH2            -3.2907905324      -26.0785848050       -0.4897399678  W2        245             0.0000000000
       734       245  TIP3      H1             -3.1511605324      -26.6703348050       -1.2290399678  W2        245             0.0000000000
       735       245  TIP3      H2             -3.1235105324      -25.2059948050       -0.8458599678  W2        245             0.0000000000
       736       246  TIP3      OH2            -8.8182505324      -29.1166348050      -10.7171399678  W2        246             0.0000000000
       737       246  TIP3      H1             -9.5297005324      -28.5816648050      -11.0690899678  W2        246             0.0000000000
       738       246  TIP3      H2             -8.1272905324      -29.0614248050      -11.3772499678  W2        246             0.0000000000
       739       247  TIP3      OH2            -8.7643305324      -30.6592048050      -13.6786399678  W2        247             0.0000000000
       740       247  TIP3      H1             -8.0633405324      -30.6365148050      -13.0272399678  W2        247             0.0000000000
       741       247  TIP3      H2             -8.4620405324      -31.2872348050      -14.3347099678  W2        247             0.0000000000
       742       248  TIP3      OH2            -1.4488605324      -29.7387848050       -2.4236999678  W2        248             0.0000000000
       743       248  TIP3      H1             -2.1014505324      -29.0442248050       -2.3346099678  W2        248             0.0000000000
       744       248  TIP3      H2             -0.9838305324      -29.5286948050       -3.2335399678  W2        248             0.0000000000
       745       249  TIP3      OH2            -5.4124805324      -28.9073048050       -9.7655499678  W2        249             0.0000000000
       746       249  TIP3      H1             -6.1443805324      -28.6789348050       -9.1924899678  W2        249             0.0000000000
       747       249  TIP3      H2             -4.9652605324      -29.6210348050       -9.3107999678  W2        249             0.0000000000
       748       250  TIP3      OH2            -5.5151305324      -30.7330448050       -0.6978499678  W2        250             0.0000000000
       749       250  TIP3      H1             -5.4352205324      -29.9696048050       -0.1259999678  W2        250             0.0000000000
       750       250  TIP3      H2             -6.1163605324      -30.4538048050       -1.3883399678  W2        250             0.0000000000
       751       251  TIP3      OH2           -13.7671105324      -28.2766848050       -7.8830499678  W2        251             0.0000000000
       752       251  TIP3      H1            -14.0975905324      -28.6473448050       -8.7013499678  W2        251             0.0000000000
       753       251  TIP3      H2            -13.1787005324      -28.9472848050       -7.5362199678  W2        251             0.0000000000
       754       252  TIP3      OH2           -12.4003605324      -24.8486248050       -5.2018299678  W2        252             0.0000000000
       755       252  TIP3      H1            -12.4952305324      -25.4273148050       -5.9583699678  W2        252             0.0000000000
       756       252  TIP3      H2            -11.6710005324      -25.2200548050       -4.7055499678  W2        252             0.0000000000
       757       253  TIP3      OH2           -13.4005605324      -29.5081248050       -4.2495499678  W2        253             0.0000000000
       758       253  TIP3      H1            -12.8353105324      -29.3867048050       -5.0124299678  W2        253             0.0000000000
       759       253  TIP3      H2            -13.0816705324      -28.8706248050       -3.6106999678  W2        253             0.0000000000
       760       254  TIP3      OH2            -7.0913405324      -24.0049348050       -3.5154999678  W2        254             0.0000000000
       761       254  TIP3      H1             -7.3316805324      -23.3426248050       -2.8675799678  W2        254             0.0000000000
       762       254  TIP3      H2             -7.2895205324      -24.8394148050       -3.0905399678  W2        254             0.0000000000
       763       255  TIP3      OH2           -12.5204905324      -25.1088548050        0.4676400322  W2        255             0.0000000000
       764       255  TIP3      H1            -12.8317405324      -24.3265348050        0.9229600322  W2        255             0.0000000000
       765       255  TIP3      H2            -13.1704705324      -25.2619448050       -0.2181599678  W2        255             0.0000000000
       766       256  TIP3      OH2            -6.5415305324      -29.7450148050      -12.0804299678  W2        256             0.0000000000
       767       256  TIP3      H1             -5.9619805324      -29.5949848050      -11.3335399678  W2        256             0.0000000000
       768       256  TIP3      H2             -6.1275305324      -29.2742748050      -12.8037899678  W2        256             0.0000000000
       769       257  TIP3      OH2           -15.6005005324      -28.9107448050       -0.3037899678  W2        257             0.0000000000
       770       257  TIP3      H1            -15.5301805324      -28.2600648050        0.3947100322  W2        257             0.0000000000
       771       257  TIP3      H2            -16.4912805324      -28.8079948050       -0.6386999678  W2        257             0.0000000000
       772       258  TIP3      OH2            -8.8150405324      -23.0081648050       -8.6451199678  W2        258             0.0000000000
       773       258  TIP3      H1             -8.3412805324      -22.7125348050       -7.8676999678  W2        258             0.0000000000
       774       258  TIP3      H2             -9.3781105324      -22.2700048050       -8.8781599678  W2        258             0.0000000000
       775       259  TIP3      OH2           -14.2809005324      -23.0373548050        1.2310200322  W2        259             0.0000000000
       776       259  TIP3      H1            -14.2733705324      -23.1733848050        0.2835700322  W2        259             0.0000000000
       777       259  TIP3      H2            -15.1968605324      -23.1545448050        1.4830200322  W2        259             0.0000000000
       778       260  TIP3      OH2            -2.8426905324      -37.9949748050      -12.2674599678  W2        260             0.0000000000
       779       260  TIP3      H1             -3.7426205324      -37.8560748050      -11.9723999678  W2        260             0.0000000000
       780       260  TIP3      H2             -2.5908505324      -37.1635148050      -12.6692899678  W2        260             0.0000000000
       781       261  TIP3      OH2           -14.7768405324      -29.2072548050      -10.2937699678  W2        261             0.0000000000
       782       261  TIP3      H1            -15.0687105324      -28.4390848050      -10.7846399678  W2        261             0.0000000000
       783       261  TIP3      H2            -15.4513205324      -29.8666348050      -10.4566299678  W2        261             0.0000000000
       784       262  TIP3      OH2            -1.6535505324      -23.6287348050      -13.8910699678  W2        262             0.0000000000
       785       262  TIP3      H1             -1.5802005324      -22.6897148050      -13.7205399678  W2        262             0.0000000000
       786       262  TIP3      H2             -0.7480405324      -23.9338748050      -13.9473399678  W2        262             0.0000000000
       787       263  TIP3      OH2           -18.6838305324      -26.8443348050       -1.4787899678  W2        263             0.0000000000
       788       263  TIP3      H1            -19.1849905324      -26.8723948050       -2.2938199678  W2        263             0.0000000000
       789       263  TIP3      H2            -18.6784605324      -27.7500148050       -1.1690599678  W2        263             0.0000000000
       790       264  TIP3      OH2           -18.9335605324      -24.0639548050       -4.5947699678  W2        264             0.0000000000
       791       264  TIP3      H1            -17.9875005324      -24.2082548050       -4.6138199678  W2        264             0.0000000000
       792       264  TIP3      H2            -19.0459305324      -23.2796748050       -4.0576499678  W2        264             0.0000000000
       793       265  TIP3      OH2            -0.7357105324      -23.3979848050        1.0876000322  W2        265             0.0000000000
       794       265  TIP3      H1             -0.7850305324      -24.3531748050        1.0503600322  W2        265             0.0000000000
       795       265  TIP3      H2             -1.5624805324      -23.1304548050        1.4889800322  W2        265             0.0000000000
       796       266  TIP3      OH2            -9.7573105324      -23.8240648050       -0.0362599678  W2        266             0.0000000000
       797       266  TIP3      H1             -9.6698505324      -22.9976048050        0.4386500322  W2        266             0.0000000000
       798       266  TIP3      H2            -10.6208005324      -24.1536848050        0.2126700322  W2        266             0.0000000000
       799       267  TIP3      OH2            -9.3427305324      -20.0516948050      -10.2301999678  W2        267             0.0000000000
       800       267  TIP3      H1             -9.4181305324      -20.1729748050      -11.1766799678  W2        267             0.0000000000
       801       267  TIP3      H2             -9.3098605324      -19.1024248050      -10.1117399678  W2        267             0.0000000000
       802       268  TIP3      OH2           -15.6893505324      -21.2629948050       -8.4492999678  W2        268             0.0000000000
       803       268  TIP3      H1            -15.5373105324      -21.6109548050       -7.5706499678  W2        268             0.0000000000
       804       268  TIP3      H2            -16.5403105324      -21.6192648050       -8.7045799678  W2        268             0.0000000000
       805       269  TIP3      OH2            -6.2411305324      -20.8976748050      -13.2279599678  W2        269             0.0000000000
       806       269  TIP3      H1             -5.8662905324      -21.6420648050      -13.6986999678  W2        269             0.0000000000
       807       269  TIP3      H2             -6.2367605324      -21.1676148050      -12.3096299678  W2        269             0.0000000000
       808       270  TIP3      OH2            -6.5723205324      -20.9719648050      -10.4787399678  W2        270             0.0000000000
       809       270  TIP3      H1             -7.5073405324      -20.8717748050      -10.3000399678  W2        270             0.0000000000
       810       270  TIP3      H2             -6.2921305324      -21.6813648050       -9.9004199678  W2        270             0.0000000000
       811       271  TIP3      OH2            -3.5837305324      -31.9047348050        1.5678200322  W2        271             0.0000000000
       812       271  TIP3      H1             -3.9910505324      -31.4241748050        0.8471500322  W2        271             0.0000000000
       813       271  TIP3      H2             -3.5431605324      -32.8101348050        1.2599000322  W2        271             0.0000000000
       814       272  TIP3      OH2           -16.4347805324      -25.5207948050       -0.4355099678  W2        272             0.0000000000
       815       272  TIP3      H1            -16.2186505324      -25.8822348050        0.4240700322  W2        272             0.0000000000
       816       272  TIP3      H2            -17.2903105324      -25.8954148050       -0.6451599678  W2        272             0.0000000000
       817       273  TIP3      OH2           -13.8159805324      -37.0507448050       -4.4400899678  W2        273             0.0000000000
       818       273  TIP3      H1            -14.6776105324      -37.1379248050       -4.8477999678  W2        273             0.0000000000
       819       273  TIP3      H2            -13.8384105324      -36.1947348050       -4.0123299678  W2        273             0.0000000000
       820       274  TIP3      OH2            -9.1532005324      -37.3287048050       -1.0653899678  W2        274             0.0000000000
       821       274  TIP3      H1             -8.7328905324      -37.7439948050       -0.3123299678  W2        274             0.0000000000
       822       274  TIP3      H2            -10.0862405324      -37.5073748050       -0.9481899678  W2        274             0.0000000000
       823       275  TIP3      OH2            -5.8267105324      -33.5731848050       -0.2119399678  W2        275             0.0000000000
       824       275  TIP3      H1             -6.3407605324      -33.6989648050        0.5856600322  W2        275             0.0000000000
       825       275  TIP3      H2             -5.9822405324      -32.6608748050       -0.4563199678  W2        275             0.0000000000
       826       276  TIP3      OH2            -5.0642205324      -28.7121848050      -14.4506399678  W2        276             0.0000000000
       827       276  TIP3      H1             -5.0221405324      -28.9347948050      -15.3806399678  W2        276             0.0000000000
       828       276  TIP3      H2             -4.2150105324      -28.3134748050      -14.2606499678  W2        276             0.0000000000
       829       277  TIP3      OH2            -9.4914705324      -34.8363648050      -13.7803099678  W2        277             0.0000000000
       830       277  TIP3      H1             -9.7449905324      -34.8172048050      -12.8574999678  W2        277             0.0000000000
       831       277  TIP3      H2             -9.7482605324      -35.7078248050      -14.0816899678  W2        277             0.0000000000
       832       278  TIP3      OH2           -13.7249705324      -32.0852948050       -3.3450699678  W2        278             0.0000000000
       833       278  TIP3      H1            -14.3667605324      -32.1255648050       -2.6360599678  W2        278             0.0000000000
       834       278  TIP3      H2            -13.6877705324      -31.1588248050       -3.5827699678  W2        278             0.0000000000
       835       279  TIP3      OH2           -13.7280605324      -31.8642848050       -8.4330699678  W2        279             0.0000000000
       836       279  TIP3      H1            -14.6207705324      -32.2046748050       -8.4916899678  W2        279             0.0000000000
       837       279  TIP3      H2            -13.2774005324      -32.2411948050       -9.1887499678  W2        279             0.0000000000
       838       280  TIP3      OH2            -8.1925105324      -31.4482548050       -9.6159899678  W2        280             0.0000000000
       839       280  TIP3      H1             -8.6014805324      -30.6333948050       -9.9075099678  W2        280             0.0000000000
       840       280  TIP3      H2             -7.4718905324      -31.5882448050      -10.2302799678  W2        280             0.0000000000
       841       281  TIP3      OH2            -9.0903505324      -31.2726148050        1.8720800322  W2        281             0.0000000000
       842       281  TIP3      H1             -9.6529705324      -31.9774548050        2.1928600322  W2        281             0.0000000000
       843       281  TIP3      H2             -8.2640105324      -31.3934248050        2.3398400322  W2        281             0.0000000000
       844       282  TIP3      OH2            -7.1877405324      -32.0022148050       -6.8020199678  W2        282             0.0000000000
       845       282  TIP3      H1             -7.3832905324      -31.3965348050       -7.5169599678  W2        282             0.0000000000
       846       282  TIP3      H2             -7.0064805324      -32.8356948050       -7.2363899678  W2        282             0.0000000000
       847       283  TIP3      OH2           -15.9749205324      -31.7649448050       -1.4778699678  W2        283             0.0000000000
       848       283  TIP3      H1            -16.0129805324      -31.3647848050       -0.6091599678  W2        283             0.0000000000
       849       283  TIP3      H2            -16.4658105324      -32.5817048050       -1.3875799678  W2        283             0.0000000000
       850       284  TIP3      OH2           -12.6091805324      -34.3907148050      -14.6792699678  W2        284             0.0000000000
       851       284  TIP3      H1            -13.0401105324      -34.8357048050      -13.9495299678  W2        284             0.0000000000
       852       284  TIP3      H2            -13.3273105324      -34.0190848050      -15.1915199678  W2        284             0.0000000000
       853       285  TIP3      OH2           -19.3668405324      -34.6487648050       -7.6273999678  W2        285             0.0000000000
       854       285  TIP3      H1            -18.7360705324      -34.6775548050       -6.9080099678  W2        285             0.0000000000
       855       285  TIP3      H2            -18.9174105324      -35.0738948050       -8.3578099678  W2        285             0.0000000000
       856       286  TIP3      OH2           -18.0926305324      -33.9025648050      -12.2033599678  W2        286             0.0000000000
       857       286  TIP3      H1            -17.6184605324      -33.3115748050      -12.7882699678  W2        286             0.0000000000
       858       286  TIP3      H2            -18.8099905324      -33.3722748050      -11.8563499678  W2        286             0.0000000000
       859       287  TIP3      OH2            -7.9238205324      -30.3640848050       -2.1307799678  W2        287             0.0000000000
       860       287  TIP3      H1             -7.6003405324      -30.9951148050       -2.7737299678  W2        287             0.0000000000
       861       287  TIP3      H2             -8.3638905324      -30.8988648050       -1.4700399678  W2        287             0.0000000000
       862       288  TIP3      OH2           -11.1465305324      -34.4365348050       -7.3466599678  W2        288             0.0000000000
       863       288  TIP3      H1            -12.0574205324      -34.3798548050       -7.0580599678  W2        288             0.0000000000
       864       288  TIP3      H2            -10.6412405324      -34.4969848050       -6.5359399678  W2        288             0.0000000000
       865       289  TIP3      OH2           -16.3181905324      -32.8079048050       -8.5198999678  W2        289             0.0000000000
       866       289  TIP3      H1            -17.2073905324      -32.7083548050       -8.8599399678  W2        289             0.0000000000
       867       289  TIP3      H2            -16.0217005324      -33.6496048050       -8.8661099678  W2        289             0.0000000000
       868       290  TIP3      OH2           -12.6650105324      -32.8076448050      -10.8634399678  W2        290             0.0000000000
       869       290  TIP3      H1            -11.7334605324      -32.6786448050      -10.6851299678  W2        290             0.0000000000
       870       290  TIP3      H2            -12.8799805324      -32.1382148050      -11.5129699678  W2        290             0.0000000000
       871       291  TIP3      OH2            -6.7413405324      -35.2019048050       -4.0824799678  W2        291             0.0000000000
       872       291  TIP3      H1             -7.4181805324      -35.0705948050       -3.4185099678  W2        291             0.0000000000
       873       291  TIP3      H2             -7.2268505324      -35.3569548050       -4.8927099678  W2        291             0.0000000000
       874       292  TIP3      OH2           -13.9909905324      -31.6134248050      -13.2968299678  W2        292             0.0000000000
       875       292  TIP3      H1            -14.5334805324      -31.9930448050      -13.9880699678  W2        292             0.0000000000
       876       292  TIP3      H2            -13.1575005324      -31.4189548050      -13.7254199678  W2        292             0.0000000000
       877       293  TIP3      OH2            -3.4538305324      -19.5303648050        2.1942800322  W2        293             0.0000000000
       878       293  TIP3      H1             -3.2539605324      -19.1061748050        1.3598100322  W2        293             0.0000000000
       879       293  TIP3      H2             -2.7984605324      -19.1865448050        2.8013200322  W2        293             0.0000000000
       880       294  TIP3      OH2           -15.8558505324      -27.0562348050        1.8023300322  W2        294             0.0000000000
       881       294  TIP3      H1            -15.1236105324      -26.8016448050        2.3637800322  W2        294             0.0000000000
       882       294  TIP3      H2            -16.6359805324      -26.8516948050        2.3178700322  W2        294             0.0000000000
       883       295  TIP3      OH2            -9.8265605324      -31.6492348050       -5.4596999678  W2        295             0.0000000000
       884       295  TIP3      H1             -9.2622205324      -32.1955748050       -6.0067399678  W2        295             0.0000000000
       885       295  TIP3      H2             -9.9742205324      -32.1710448050       -4.6709399678  W2        295             0.0000000000
       886       296  TIP3      OH2           -14.8245905324      -35.5126248050       -9.0412199678  W2        296             0.0000000000
       887       296  TIP3      H1            -15.1416405324      -36.4150948050       -9.0766799678  W2        296             0.0000000000
       888       296  TIP3      H2            -14.0431805324      -35.5108848050       -9.5940599678  W2        296             0.0000000000
       889       297  TIP3      OH2           -11.1999705324      -33.2606248050       -3.0456599678  W2        297             0.0000000000
       890       297  TIP3      H1            -12.0354405324      -32.8066748050       -2.9354199678  W2        297             0.0000000000
       891       297  TIP3      H2            -10.6759105324      -32.9847748050       -2.2936699678  W2        297             0.0000000000
       892       298  TIP3      OH2           -10.6557105324      -27.0478548050      -11.3610199678  W2        298             0.0000000000
       893       298  TIP3      H1            -11.4006105324      -27.5553248050      -11.6832299678  W2        298             0.0000000000
       894       298  TIP3      H2            -10.7899905324      -26.9990548050      -10.4145399678  W2        298             0.0000000000
       895       299  TIP3      OH2            -3.5058205324      -27.9150348050       -2.5742599678  W2        299             0.0000000000
       896       299  TIP3      H1             -2.8639405324      -27.4584048050       -3.1180399678  W2        299             0.0000000000
       897       299  TIP3      H2             -4.3361305324      -27.8017948050       -3.0368499678  W2        299             0.0000000000
       898       300  TIP3      OH2            -6.7580305324      -34.2338648050      -13.1617599678  W2        300             0.0000000000
       899       300  TIP3      H1             -7.6966105324      -34.1223048050      -13.3128799678  W2        300             0.0000000000
       900       300  TIP3      H2             -6.4608205324      -33.3771748050      -12.8551899678  W2        300             0.0000000000
       901       301  TIP3      OH2            -9.1365005324      -26.8635248050       -0.1241099678  W2        301             0.0000000000
       902       301  TIP3      H1             -9.4818905324      -27.2452848050        0.6828500322  W2        301             0.0000000000
       903       301  TIP3      H2             -9.3364905324      -25.9301648050       -0.0528199678  W2        301             0.0000000000
       904       302  TIP3      OH2            -6.0396805324      -32.3665948050      -11.5010199678  W2        302             0.0000000000
       905       302  TIP3      H1             -5.1477805324      -32.5040948050      -11.1818999678  W2        302             0.0000000000
       906       302  TIP3      H2             -5.9833205324      -31.5759848050      -12.0376699678  W2        302             0.0000000000
       907       303  TIP3      OH2           -15.5308805324      -27.7528548050       -5.5912299678  W2        303             0.0000000000
       908       303  TIP3      H1            -14.7861605324      -27.7552848050       -6.1925799678  W2        303             0.0000000000
       909       303  TIP3      H2            -15.4532205324      -28.5764748050       -5.1097199678  W2        303             0.0000000000
       910       304  TIP3      OH2            -8.5303005324      -25.5894248050      -12.3355599678  W2        304             0.0000000000
       911       304  TIP3      H1             -8.8254605324      -24.7626348050      -11.9540799678  W2        304             0.0000000000
       912       304  TIP3      H2             -9.2333005324      -26.2087348050      -12.1394199678  W2        304             0.0000000000
       913       305  TIP3      OH2           -18.5229105324      -29.2921648050       -0.2763799678  W2        305             0.0000000000
       914       305  TIP3      H1            -18.3000505324      -29.7102048050        0.5553700322  W2        305             0.0000000000
       915       305  TIP3      H2            -19.1249005324      -29.9046648050       -0.6990999678  W2        305             0.0000000000
       916       306  TIP3      OH2           -11.5064205324      -29.7751748050        1.9365900322  W2        306             0.0000000000
       917       306  TIP3      H1            -11.8023405324      -29.9408748050        1.0415000322  W2        306             0.0000000000
       918       306  TIP3      H2            -10.5749005324      -29.9951448050        1.9259800322  W2        306             0.0000000000
       919       307  TIP3      OH2            -6.8861405324      -24.4019748050       -0.1736099678  W2        307             0.0000000000
       920       307  TIP3      H1             -7.7867105324      -24.2187148050       -0.4412199678  W2        307             0.0000000000
       921       307  TIP3      H2             -6.8520305324      -24.1430448050        0.7472700322  W2        307             0.0000000000
       922       308  TIP3      OH2            -1.1548105324      -32.1571848050      -11.8063499678  W2        308             0.0000000000
       923       308  TIP3      H1             -1.7091805324      -32.5533848050      -12.4785999678  W2        308             0.0000000000
       924       308  TIP3      H2             -1.0544505324      -31.2466648050      -12.0840199678  W2        308             0.0000000000
       925       309  TIP3      OH2            -1.1916105324      -26.3570148050        1.0308000322  W2        309             0.0000000000
       926       309  TIP3      H1             -2.0427605324      -26.1186348050        0.6634400322  W2        309             0.0000000000
       927       309  TIP3      H2             -0.6012705324      -26.3736948050        0.2775100322  W2        309             0.0000000000
       928       310  TIP3      OH2            -2.8596405324      -23.3711448050      -11.3411399678  W2        310             0.0000000000
       929       310  TIP3      H1             -3.2325305324      -24.1967648050      -11.0320799678  W2        310             0.0000000000
       930       310  TIP3      H2             -2.5822905324      -23.5542048050      -12.2387999678  W2        310             0.0000000000
       931       311  TIP3      OH2            -5.6992505324      -28.5631948050       -4.3199499678  W2        311             0.0000000000
       932       311  TIP3      H1             -6.6275605324      -28.7950048050       -4.3470199678  W2        311             0.0000000000
       933       311  TIP3      H2             -5.2481405324      -29.3402148050       -4.6500699678  W2        311             0.0000000000
       934       312  TIP3      OH2           -13.1559405324      -24.2350348050       -8.1870799678  W2        312             0.0000000000
       935       312  TIP3      H1            -12.6287205324      -23.4615948050       -8.3871999678  W2        312             0.0000000000
       936       312  TIP3      H2            -14.0360905324      -24.0101148050       -8.4886799678  W2        312             0.0000000000
       937       313  TIP3      OH2           -17.4011705324      -29.3726248050      -13.5998399678  W2        313             0.0000000000
       938       313  TIP3      H1            -16.7851805324      -28.7459048050      -13.2203599678  W2        313             0.0000000000
       939       313  TIP3      H2            -18.2629105324      -29.0566448050      -13.3281899678  W2        313             0.0000000000
       940       314  TIP3      OH2           -11.7287105324      -26.5720448050       -8.6106499678  W2        314             0.0000000000
       941       314  TIP3      H1            -11.9697105324      -25.6466048050       -8.5691199678  W2        314             0.0000000000
       942       314  TIP3      H2            -12.4693505324      -27.0309148050       -8.2142599678  W2        314             0.0000000000
       943       315  TIP3      OH2           -11.2140505324      -22.4226848050       -2.2955399678  W2        315             0.0000000000
       944       315  TIP3      H1            -10.8515805324      -21.5681248050       -2.5290999678  W2        315             0.0000000000
       945       315  TIP3      H2            -10.6825305324      -22.7145248050       -1.5549099678  W2        315             0.0000000000
       946       316  TIP3      OH2           -13.0456305324      -21.5502848050       -9.0654299678  W2        316             0.0000000000
       947       316  TIP3      H1            -13.9955805324      -21.4445448050       -9.0140999678  W2        316             0.0000000000
       948       316  TIP3      H2            -12.6938205324      -20.7295448050       -8.7206799678  W2        316             0.0000000000
       949       317  TIP3      OH2            -7.6699705324      -26.3236148050       -2.5949799678  W2        317             0.0000000000
       950       317  TIP3      H1             -8.0958405324      -26.5514448050       -1.7685799678  W2        317             0.0000000000
       951       317  TIP3      H2             -7.0893905324      -27.0624348050       -2.7774499678  W2        317             0.0000000000
       952       318  TIP3      OH2            -5.4670805324      -25.3945648050      -13.5210799678  W2        318             0.0000000000
       953       318  TIP3      H1             -5.1137705324      -25.7745848050      -12.7167299678  W2        318             0.0000000000
       954       318  TIP3      H2             -6.4157305324      -25.4880848050      -13.4341499678  W2        318             0.0000000000
       955       319  TIP3      OH2            -5.0115505324      -21.7716648050       -0.1254999678  W2        319             0.0000000000
       956       319  TIP3      H1             -5.6132305324      -22.3273748050       -0.6208699678  W2        319             0.0000000000
       957       319  TIP3      H2             -4.7301805324      -21.1046848050       -0.7517599678  W2        319             0.0000000000
       958       320  TIP3      OH2            -0.9636405324      -20.9153148050      -13.3200599678  W2        320             0.0000000000
       959       320  TIP3      H1             -0.2198505324      -20.3292648050      -13.4598999678  W2        320             0.0000000000
       960       320  TIP3      H2             -1.6578305324      -20.3467348050      -12.9868199678  W2        320             0.0000000000
       961       321  TIP3      OH2           -16.8889605324      -34.5388948050       -0.7182399678  W2        321             0.0000000000
       962       321  TIP3      H1            -17.7817305324      -34.2003548050       -0.7858399678  W2        321             0.0000000000
       963       321  TIP3      H2            -16.9876805324      -35.3942848050       -0.3001599678  W2        321             0.0000000000
       964       322  TIP3      OH2            -4.6011505324      -26.7223648050      -11.2942899678  W2        322             0.0000000000
       965       322  TIP3      H1             -4.8783905324      -27.4504348050      -10.7381799678  W2        322             0.0000000000
       966       322  TIP3      H2             -3.6738505324      -26.6031648050      -11.0890299678  W2        322             0.0000000000
       967       323  TIP3      OH2           -17.2377605324      -22.7344548050       -2.2832999678  W2        323             0.0000000000
       968       323  TIP3      H1            -17.0207305324      -23.6662148050       -2.3143299678  W2        323             0.0000000000
       969       323  TIP3      H2            -16.9914105324      -22.4599548050       -1.4000199678  W2        323             0.0000000000
       970       324  TIP3      OH2           -11.3763005324      -24.2829548050      -15.0740799678  W2        324             0.0000000000
       971       324  TIP3      H1            -11.1373205324      -25.0311448050      -15.6211899678  W2        324             0.0000000000
       972       324  TIP3      H2            -11.6451705324      -24.6707848050      -14.2412999678  W2        324             0.0000000000
       973       325  TIP3      OH2           -12.4392405324      -24.7125748050      -12.6178199678  W2        325             0.0000000000
       974       325  TIP3      H1            -12.2924405324      -25.2325948050      -11.8277299678  W2        325             0.0000000000
       975       325  TIP3      H2            -12.4420705324      -23.8058148050      -12.3112299678  W2        325             0.0000000000
       976       326  TIP3      OH2           -15.9861305324      -27.4602448050      -12.1072799678  W2        326             0.0000000000
       977       326  TIP3      H1            -16.6722005324      -27.1079948050      -11.5403099678  W2        326             0.0000000000
       978       326  TIP3      H2            -15.4633405324      -26.6972848050      -12.3538499678  W2        326             0.0000000000
       979       327  TIP3      OH2            -8.1546205324      -34.7978648050       -1.8283799678  W2        327             0.0000000000
       980       327  TIP3      H1             -7.4558305324      -34.7239948050       -1.1784099678  W2        327             0.0000000000
       981       327  TIP3      H2             -8.5354805324      -35.6623648050       -1.6740899678  W2        327             0.0000000000
       982       328  TIP3      OH2            -7.3701305324      -35.1456948050      -10.7311499678  W2        328             0.0000000000
       983       328  TIP3      H1             -7.1503005324      -34.6741548050      -11.5346099678  W2        328             0.0000000000
       984       328  TIP3      H2             -6.8117305324      -34.7514348050      -10.0610899678  W2        328             0.0000000000
       985       329  TIP3      OH2            -9.7015205324      -23.0152148050      -11.8683999678  W2        329             0.0000000000
       986       329  TIP3      H1            -10.5179105324      -22.5182448050      -11.8159699678  W2        329             0.0000000000
       987       329  TIP3      H2             -9.1718905324      -22.5398648050      -12.5085199678  W2        329             0.0000000000
       988       330  TIP3      OH2           -10.1701405324      -33.4178148050       -9.8963099678  W2        330             0.0000000000
       989       330  TIP3      H1             -9.3578805324      -32.9134948050       -9.8501399678  W2        330             0.0000000000
       990       330  TIP3      H2            -10.4148405324      -33.5628448050       -8.9823499678  W2        330             0.0000000000
       991       331  TIP3      OH2            -9.6345005324      -32.4315448050       -0.7116499678  W2        331             0.0000000000
       992       331  TIP3      H1             -9.5154705324      -31.8580048050        0.0453900322  W2        331             0.0000000000
       993       331  TIP3      H2             -8.9790405324      -33.1196048050       -0.5968699678  W2        331             0.0000000000
       994       332  TIP3      OH2            -9.2864705324      -36.3365148050       -8.9581999678  W2        332             0.0000000000
       995       332  TIP3      H1             -9.6331205324      -35.7194548050       -8.3137699678  W2        332             0.0000000000
       996       332  TIP3      H2             -8.6277805324      -35.8359448050       -9.4396499678  W2        332             0.0000000000
       997       333  TIP3      OH2           -12.3632105324      -21.9714948050      -11.8867099678  W2        333             0.0000000000
       998       333  TIP3      H1            -12.2023405324      -21.1717448050      -12.3874499678  W2        333             0.0000000000
       999       333  TIP3      H2            -12.5604305324      -21.6648948050      -11.0016499678  W2        333             0.0000000000
      1000       334  TIP3      OH2           -13.6287705324      -35.2735748050      -12.2709499678  W2        334             0.0000000000
      1001       334  TIP3      H1            -13.7122905324      -34.3852648050      -11.9243099678  W2        334             0.0000000000
      1002       334  TIP3      H2            -12.7387405324      -35.5389048050      -12.0392699678  W2        334             0.0000000000
      1003       335  TIP3      OH2            -3.4299205324      -34.5245148050        0.1233200322  W2        335             0.0000000000
      1004       335  TIP3      H1             -4.3463405324      -34.2623448050        0.0356900322  W2        335             0.0000000000
      1005       335  TIP3      H2             -3.0944205324      -34.5276148050       -0.7731499678  W2        335             0.0000000000
      1006       336  TIP3      OH2            -4.8278205324      -30.7744148050       -5.7809499678  W2        336             0.0000000000
      1007       336  TIP3      H1             -5.6253805324      -31.1893948050       -6.1094499678  W2        336             0.0000000000
      1008       336  TIP3      H2             -4.3827105324      -31.4650448050       -5.2898999678  W2        336             0.0000000000
      1009       337  TIP3      OH2           -15.3702405324      -24.8463548050      -13.2104999678  W2        337             0.0000000000
      1010       337  TIP3      H1            -14.7780905324      -24.1468748050      -12.9342599678  W2        337             0.0000000000
      1011       337  TIP3      H2            -14.9109405324      -25.2794048050      -13.9300399678  W2        337             0.0000000000
      1012       338  TIP3      OH2           -17.0543205324      -32.1820548050      -14.0945599678  W2        338             0.0000000000
      1013       338  TIP3      H1            -17.0990605324      -31.2427448050      -13.9158599678  W2        338             0.0000000000
      1014       338  TIP3      H2            -17.9420005324      -32.4175648050      -14.3643499678  W2        338             0.0000000000
      1015       339  TIP3      OH2            -3.7413605324      -21.5181648050       -4.1585999678  W2        339             0.0000000000
      1016       339  TIP3      H1             -3.8969305324      -20.8397248050       -4.8156699678  W2        339             0.0000000000
      1017       339  TIP3      H2             -2.8087205324      -21.4462348050       -3.9555399678  W2        339             0.0000000000
      1018       340  TIP3      OH2           -16.2461205324      -37.4003948050       -5.4214599678  W2        340             0.0000000000
      1019       340  TIP3      H1            -16.4751405324      -37.3411448050       -6.3489599678  W2        340             0.0000000000
      1020       340  TIP3      H2            -16.6887805324      -38.1918448050       -5.1150499678  W2        340             0.0000000000
      1021       341  TIP3      OH2           -17.3157905324      -23.4596848050       -9.2608799678  W2        341             0.0000000000
      1022       341  TIP3      H1            -18.1479305324      -22.9874148050       -9.2337399678  W2        341             0.0000000000
      1023       341  TIP3      H2            -16.7699605324      -22.9499248050       -9.8595699678  W2        341             0.0000000000
      1024       342  TIP3      OH2           -18.0274205324      -20.8473148050        2.0689200322  W2        342             0.0000000000
      1025       342  TIP3      H1            -17.4872005324      -21.0639148050        2.8288400322  W2        342             0.0000000000
      1026       342  TIP3      H2            -18.5086205324      -21.6527148050        1.8791700322  W2        342             0.0000000000
      1027       343  TIP3      OH2           -13.4300805324      -21.9278748050        3.6893400322  W2        343             0.0000000000
      1028       343  TIP3      H1            -12.6623605324      -22.3867948050        4.0302600322  W2        343             0.0000000000
      1029       343  TIP3      H2            -13.4514605324      -22.1538948050        2.7594600322  W2        343             0.0000000000
      1030       344  TIP3      OH2            -9.3381205324      -22.4198148050      -14.9354799678  W2        344             0.0000000000
      1031       344  TIP3      H1             -9.9820205324      -23.0509548050      -14.6141099678  W2        344             0.0000000000
      1032       344  TIP3      H2             -8.5762905324      -22.9510148050      -15.1671299678  W2        344             0.0000000000
      1033       345  TIP3      OH2            -6.8532105324      -23.5477648050        2.4184900322  W2        345             0.0000000000
      1034       345  TIP3      H1             -7.2042605324      -24.4044648050        2.6615300322  W2        345             0.0000000000
      1035       345  TIP3      H2             -6.1268905324      -23.4050948050        3.0253900322  W2        345             0.0000000000
      1036       346  TIP3      OH2            -4.7338305324      -22.6028248050      -14.7016799678  W2        346             0.0000000000
      1037       346  TIP3      H1             -4.4507905324      -23.3973048050      -14.2489899678  W2        346             0.0000000000
      1038       346  TIP3      H2             -3.9940405324      -22.3697248050      -15.2625699678  W2        346             0.0000000000
      1039       347  TIP3      OH2           -18.1204705324      -27.0369048050        3.0233500322  W2        347             0.0000000000
      1040       347  TIP3      H1            -17.9764205324      -27.9388348050        2.7370200322  W2        347             0.0000000000
      1041       347  TIP3      H2            -18.8927305324      -26.7506948050        2.5355800322  W2        347             0.0000000000
      1042       348  TIP3      OH2           -13.7791005324      -26.6933348050      -14.8441899678  W2        348             0.0000000000
      1043       348  TIP3      H1            -13.7146905324      -27.4873748050      -14.3135499678  W2        348             0.0000000000
      1044       348  TIP3      H2            -13.1261805324      -26.8120548050      -15.5339899678  W2        348             0.0000000000
      1045       349  TIP3      OH2           -11.4648605324      -27.0670948050        2.4559900322  W2        349             0.0000000000
      1046       349  TIP3      H1            -11.7934805324      -26.7962848050        1.5987300322  W2        349             0.0000000000
      1047       349  TIP3      H2            -11.3130405324      -28.0081148050        2.3684900322  W2        349             0.0000000000
      1048       350  TIP3      OH2            -8.4267605324      -25.6461648050      -15.1083899678  W2        350             0.0000000000
      1049       350  TIP3      H1             -8.6953505324      -25.4659548050      -14.2074999678  W2        350             0.0000000000
      1050       350  TIP3      H2             -8.6332005324      -26.5715448050      -15.2398099678  W2        350             0.0000000000
      1051       351  TIP3      OH2            -5.7303405324      -27.1513648050       -0.1607799678  W2        351             0.0000000000
      1052       351  TIP3      H1             -4.9848605324      -26.5629948050       -0.2803799678  W2        351             0.0000000000
      1053       351  TIP3      H2             -6.4876605324      -26.5693948050       -0.0974699678  W2        351             0.0000000000
      1054       352  TIP3      OH2           -17.2878205324      -29.8365748050        2.4432800322  W2        352             0.0000000000
      1055       352  TIP3      H1            -16.8797005324      -30.6939148050        2.3223400322  W2        352             0.0000000000
      1056       352  TIP3      H2            -17.5480605324      -29.8224448050        3.3643100322  W2        352             0.0000000000
      1057       353  TIP3      OH2           -12.6297205324      -28.7207148050      -12.5383899678  W2        353             0.0000000000
      1058       353  TIP3      H1            -13.0895205324      -29.2048848050      -11.8525399678  W2        353             0.0000000000
      1059       353  TIP3      H2            -12.3748505324      -29.3891748050      -13.1743399678  W2        353             0.0000000000
      1060       354  TIP3      OH2           -13.3407905324      -30.8280048050       -0.1824299678  W2        354             0.0000000000
      1061       354  TIP3      H1            -13.9591805324      -30.1533448050        0.0980400322  W2        354             0.0000000000
      1062       354  TIP3      H2            -12.9966705324      -30.5066148050       -1.0158099678  W2        354             0.0000000000
      1063       355  TIP3      OH2           -11.5586805324      -30.4775348050      -14.2760699678  W2        355             0.0000000000
      1064       355  TIP3      H1            -11.7391805324      -30.6324148050      -15.2032399678  W2        355             0.0000000000
      1065       355  TIP3      H2            -10.6086305324      -30.3696648050      -14.2312799678  W2        355             0.0000000000
      1066       356  TIP3      OH2            -8.3209705324      -28.3564748050        3.0950500322  W2        356             0.0000000000
      1067       356  TIP3      H1             -7.3678505324      -28.2725648050        3.0676500322  W2        356             0.0000000000
      1068       356  TIP3      H2             -8.4815105324      -29.0682948050        3.7145400322  W2        356             0.0000000000
      1069       357  TIP3      OH2            -2.1688505324      -28.1231148050      -14.8302599678  W2        357             0.0000000000
      1070       357  TIP3      H1             -2.4423705324      -28.5475648050      -15.6434299678  W2        357             0.0000000000
      1071       357  TIP3      H2             -2.1294405324      -27.1916648050      -15.0472199678  W2        357             0.0000000000
      1072       358  TIP3      OH2           -13.0014205324      -33.4729248050        0.8998800322  W2        358             0.0000000000
      1073       358  TIP3      H1            -12.8513305324      -34.2017948050        0.2978500322  W2        358             0.0000000000
      1074       358  TIP3      H2            -12.9991805324      -32.6957548050        0.3411000322  W2        358             0.0000000000
      1075       359  TIP3      OH2           -12.5888505324      -35.1033448050       -1.6073799678  W2        359             0.0000000000
      1076       359  TIP3      H1            -12.0531005324      -34.6516748050       -2.2594499678  W2        359             0.0000000000
      1077       359  TIP3      H2            -13.4408905324      -35.2113648050       -2.0299699678  W2        359             0.0000000000
      1078       360  TIP3      OH2           -11.0070105324      -29.6637248050       -1.3678599678  W2        360             0.0000000000
      1079       360  TIP3      H1            -10.2565305324      -29.8199748050       -1.9410799678  W2        360             0.0000000000
      1080       360  TIP3      H2            -11.3461805324      -28.8120648050       -1.6433099678  W2        360             0.0000000000
      1081       361  TIP3      OH2            -6.5913905324      -31.8485448050        3.6606700322  W2        361             0.0000000000
      1082       361  TIP3      H1             -6.3992605324      -32.7796048050        3.5491200322  W2        361             0.0000000000
      1083       361  TIP3      H2             -5.7337605324      -31.4235948050        3.6502100322  W2        361             0.0000000000
      1084       362  TIP3      OH2            -5.2746705324      -29.0600248050        1.7379400322  W2        362             0.0000000000
      1085       362  TIP3      H1             -5.5561705324      -28.3505648050        1.1603200322  W2        362             0.0000000000
      1086       362  TIP3      H2             -4.3322405324      -29.1327248050        1.5870600322  W2        362             0.0000000000
      1087       363  TIP3      OH2           -14.5227905324      -32.2745748050        2.8114400322  W2        363             0.0000000000
      1088       363  TIP3      H1            -15.2898905324      -32.8070948050        2.6012000322  W2        363             0.0000000000
      1089       363  TIP3      H2            -13.8438905324      -32.5845348050        2.2120700322  W2        363             0.0000000000
      1090       364  TIP3      OH2           -11.7833005324      -37.6467748050       -1.1760199678  W2        364             0.0000000000
      1091       364  TIP3      H1            -11.8813405324      -36.7004548050       -1.2813999678  W2        364             0.0000000000
      1092       364  TIP3      H2            -12.5256805324      -38.0193948050       -1.6516699678  W2        364             0.0000000000
      1093       365  TIP3      OH2           -10.5192505324      -33.3252348050        2.3878200322  W2        365             0.0000000000
      1094       365  TIP3      H1            -10.7547105324      -33.5445648050        3.2893100322  W2        365             0.0000000000
      1095       365  TIP3      H2            -11.3025605324      -33.5321148050        1.8780700322  W2        365             0.0000000000
      1096       366  TIP3      OH2            -7.8035905324      -34.1978848050        1.4631700322  W2        366             0.0000000000
      1097       366  TIP3      H1             -8.7510505324      -34.1659148050        1.5955000322  W2        366             0.0000000000
      1098       366  TIP3      H2             -7.4909205324      -34.8231748050        2.1169900322  W2        366             0.0000000000
      1099       367  TIP3      OH2            -6.1694405324      -35.5637748050        3.4683600322  W2        367             0.0000000000
      1100       367  TIP3      H1             -6.2662605324      -36.5160448050        3.4625500322  W2        367             0.0000000000
      1101       367  TIP3      H2             -6.4911305324      -35.2950948050        4.3289100322  W2        367             0.0000000000
      1102       368  TIP3      OH2           -16.3425105324      -34.3541948050        2.5159100322  W2        368             0.0000000000
      1103       368  TIP3      H1            -16.1307705324      -35.0605848050        1.9056600322  W2        368             0.0000000000
      1104       368  TIP3      H2            -16.4537605324      -34.7915948050        3.3600300322  W2        368             0.0000000000
      1105       369  TIP3      OH2           -11.5614905324      -38.3530348050        1.4952600322  W2        369             0.0000000000
      1106       369  TIP3      H1            -10.8496505324      -38.9928148050        1.4811700322  W2        369             0.0000000000
      1107       369  TIP3      H2            -11.6624505324      -38.0862048050        0.5815700322  W2        369             0.0000000000
      1108       370  TIP3      OH2           -11.2077405324      -36.6701948050        3.5488900322  W2        370             0.0000000000
      1109       370  TIP3      H1            -11.3395205324      -37.1458148050        2.7287400322  W2        370             0.0000000000
      1110       370  TIP3      H2            -11.8070005324      -35.9258348050        3.4936000322  W2        370             0.0000000000
      1111       371  TIP3      OH2           -11.6615105324      -19.7871648050      -13.2747099678  W2        371             0.0000000000
      1112       371  TIP3      H1            -10.7284405324      -19.6292948050      -13.1308699678  W2        371             0.0000000000
      1113       371  TIP3      H2            -11.9256305324      -19.1118648050      -13.8995599678  W2        371             0.0000000000
      1114       372  TIP3      OH2           -18.0930205324      -25.1507848050      -13.7918999678  W2        372             0.0000000000
      1115       372  TIP3      H1            -17.1791005324      -25.0718948050      -13.5185099678  W2        372             0.0000000000
      1116       372  TIP3      H2            -18.0857105324      -25.8378248050      -14.4583399678  W2        372             0.0000000000
      1117       373  TIP3      OH2           -19.4439605324      -19.7579348050       -8.7145099678  W2        373             0.0000000000
      1118       373  TIP3      H1            -20.0912505324      -20.2197648050       -9.2473899678  W2        373             0.0000000000
      1119       373  TIP3      H2            -19.0895005324      -20.4296048050       -8.1318899678  W2        373             0.0000000000
      1120       374  TIP3      OH2           -18.5740405324      -21.6772348050       -6.9098899678  W2        374             0.0000000000
      1121       374  TIP3      H1            -18.9083605324      -22.5575048050       -6.7378699678  W2        374             0.0000000000
      1122       374  TIP3      H2            -18.3518005324      -21.3317348050       -6.0453299678  W2        374             0.0000000000
      1123       375  TIP3      OH2            -1.0255605324      -20.8675948050       -3.9294099678  W2        375             0.0000000000
      1124       375  TIP3      H1             -1.0468905324      -20.6827548050       -2.9904699678  W2        375             0.0000000000
      1125       375  TIP3      H2             -0.3349405324      -20.2991948050       -4.2702699678  W2        375             0.0000000000
      1126       376  TIP3      OH2            -1.4622705324      -21.3004848050       -1.0074999678  W2        376             0.0000000000
      1127       376  TIP3      H1             -1.9494005324      -22.0360748050       -1.3787599678  W2        376             0.0000000000
      1128       376  TIP3      H2             -0.9130005324      -21.6940948050       -0.3295599678  W2        376             0.0000000000
      1129       377  TIP3      OH2            -3.0115405324      -25.5106748050        3.6305300322  W2        377             0.0000000000
      1130       377  TIP3      H1             -3.8774305324      -25.6157048050        4.0247600322  W2        377             0.0000000000
      1131       377  TIP3      H2             -2.6349505324      -24.7523448050        4.0770000322  W2        377             0.0000000000
      1132       378  TIP3      OH2            -1.7105705324      -27.2543048050      -10.8552199678  W2        378             0.0000000000
      1133       378  TIP3      H1             -0.8604305324      -26.8332148050      -10.7280599678  W2        378             0.0000000000
      1134       378  TIP3      H2             -1.7050605324      -27.9942948050      -10.2480799678  W2        378             0.0000000000
      1135       379  TIP3      OH2            -1.3160105324      -29.2005648050       -9.0316499678  W2        379             0.0000000000
      1136       379  TIP3      H1             -2.0425505324      -29.6803048050       -8.6338899678  W2        379             0.0000000000
      1137       379  TIP3      H2             -0.7346805324      -28.9950948050       -8.2994899678  W2        379             0.0000000000
      1138       380  TIP3      OH2            -1.5568905324      -26.4158148050       -4.0838899678  W2        380             0.0000000000
      1139       380  TIP3      H1             -0.7234705324      -26.7938148050       -4.3645299678  W2        380             0.0000000000
      1140       380  TIP3      H2             -1.4448605324      -25.4726948050       -4.2029799678  W2        380             0.0000000000
      1141       381  TIP3      OH2            -3.0706605324      -23.5380648050       -1.7770499678  W2        381             0.0000000000
      1142       381  TIP3      H1             -3.7181305324      -23.2129148050       -1.1515299678  W2        381             0.0000000000
      1143       381  TIP3      H2             -3.5882605324      -23.9782948050       -2.4512199678  W2        381             0.0000000000
      1144       382  TIP3      OH2            -1.0477005324      -29.2997148050      -12.6405199678  W2        382             0.0000000000
      1145       382  TIP3      H1             -1.5695905324      -28.9433048050      -13.3594299678  W2        382             0.0000000000
      1146       382  TIP3      H2             -1.0807805324      -28.6249348050      -11.9624299678  W2        382             0.0000000000
      1147       383  TIP3      OH2            -2.6988005324      -32.0601548050      -14.0898099678  W2        383             0.0000000000
      1148       383  TIP3      H1             -2.6023605324      -31.3934548050      -14.7698399678  W2        383             0.0000000000
      1149       383  TIP3      H2             -2.8388405324      -32.8755248050      -14.5712599678  W2        383             0.0000000000
      1150       384  TIP3      OH2            -3.5293305324      -30.6799148050       -8.4687799678  W2        384             0.0000000000
      1151       384  TIP3      H1             -3.6794505324      -31.6250548050       -8.4889999678  W2        384             0.0000000000
      1152       384  TIP3      H2             -3.8828805324      -30.3987748050       -7.6248699678  W2        384             0.0000000000
      1153       385  TIP3      OH2           -18.4940905324      -28.6016948050       -4.4583999678  W2        385             0.0000000000
      1154       385  TIP3      H1            -18.3098005324      -28.6835248050       -5.3941099678  W2        385             0.0000000000
      1155       385  TIP3      H2            -17.6448005324      -28.7259948050       -4.0347599678  W2        385             0.0000000000
      1156       386  TIP3      OH2            -2.6730405324      -28.7095848050        1.1700500322  W2        386             0.0000000000
      1157       386  TIP3      H1             -2.0903105324      -29.4443548050        1.3617700322  W2        386             0.0000000000
      1158       386  TIP3      H2             -2.1091105324      -27.9375548050        1.2166300322  W2        386             0.0000000000
      1159       387  TIP3      OH2            -1.1763305324      -30.8070048050        1.8545900322  W2        387             0.0000000000
      1160       387  TIP3      H1             -2.0396605324      -31.1857948050        1.6890600322  W2        387             0.0000000000
      1161       387  TIP3      H2             -0.5719605324      -31.5455248050        1.7801700322  W2        387             0.0000000000
      1162       388  TIP3      OH2            -3.4514205324      -34.6521748050      -14.9722599678  W2        388             0.0000000000
      1163       388  TIP3      H1             -2.8408405324      -35.0234948050      -14.3354399678  W2        388             0.0000000000
      1164       388  TIP3      H2             -4.2882705324      -35.0734848050      -14.7762599678  W2        388             0.0000000000
      1165       389  TIP3      OH2            -3.8188505324      -33.0973348050      -10.0062699678  W2        389             0.0000000000
      1166       389  TIP3      H1             -3.5391405324      -34.0042948050       -9.8820999678  W2        389             0.0000000000
      1167       389  TIP3      H2             -3.0596805324      -32.6631848050      -10.3953499678  W2        389             0.0000000000
      1168       390  TIP3      OH2            -3.2070205324      -32.5155948050       -4.5703799678  W2        390             0.0000000000
      1169       390  TIP3      H1             -2.2742205324      -32.3036048050       -4.6047799678  W2        390             0.0000000000
      1170       390  TIP3      H2             -3.4422705324      -32.4143848050       -3.6480799678  W2        390             0.0000000000
      1171       391  TIP3      OH2            -3.1778305324      -31.7790648050       -1.7944399678  W2        391             0.0000000000
      1172       391  TIP3      H1             -4.0207005324      -31.5110248050       -1.4284599678  W2        391             0.0000000000
      1173       391  TIP3      H2             -2.7354005324      -30.9568748050       -2.0053299678  W2        391             0.0000000000
      1174       392  TIP3      OH2           -18.8966105324      -33.3311948050        1.6824800322  W2        392             0.0000000000
      1175       392  TIP3      H1            -17.9771205324      -33.4533648050        1.9187900322  W2        392             0.0000000000
      1176       392  TIP3      H2            -19.3461605324      -34.0812248050        2.0718300322  W2        392             0.0000000000
      1177       393  TIP3      OH2            -0.8946705324      -37.7990448050        3.5590600322  W2        393             0.0000000000
      1178       393  TIP3      H1             -0.5449705324      -38.4526948050        2.9535300322  W2        393             0.0000000000
      1179       393  TIP3      H2             -0.7477205324      -36.9616348050        3.1193200322  W2        393             0.0000000000
      1180       394  TIP3      OH2            -3.2053705324      -35.8344048050       -9.9580699678  W2        394             0.0000000000
      1181       394  TIP3      H1             -3.0228705324      -36.2832548050       -9.1325699678  W2        394             0.0000000000
      1182       394  TIP3      H2             -3.8050805324      -36.4189648050      -10.4216099678  W2        394             0.0000000000
      1183       395  TIP3      OH2           -17.6753605324      -35.0190348050       -5.4262299678  W2        395             0.0000000000
      1184       395  TIP3      H1            -17.2302005324      -35.8107848050       -5.1242599678  W2        395             0.0000000000
      1185       395  TIP3      H2            -17.2090605324      -34.3025148050       -4.9956699678  W2        395             0.0000000000
      1186       396  TIP3      OH2           -19.3713305324      -32.0197348050       -4.3572099678  W2        396             0.0000000000
      1187       396  TIP3      H1            -18.8793505324      -32.2406848050       -5.1480099678  W2        396             0.0000000000
      1188       396  TIP3      H2            -19.0092405324      -31.1793948050       -4.0762599678  W2        396             0.0000000000
      1189       397  TIP3      OH2            -1.3749505324      -35.6895848050        1.9081900322  W2        397             0.0000000000
      1190       397  TIP3      H1             -2.2923805324      -35.4188748050        1.8725400322  W2        397             0.0000000000
      1191       397  TIP3      H2             -1.2520105324      -36.2247448050        1.1241600322  W2        397             0.0000000000
      1192       398  TIP3      OH2            -1.3387505324      -35.7665948050      -13.4300399678  W2        398             0.0000000000
      1193       398  TIP3      H1             -0.9264905324      -36.4880248050      -13.9052399678  W2        398             0.0000000000
      1194       398  TIP3      H2             -0.6571005324      -35.0971348050      -13.3716099678  W2        398             0.0000000000
      1195       399  TIP3      OH2           -19.0576805324      -35.7618248050      -10.3029699678  W2        399             0.0000000000
      1196       399  TIP3      H1            -19.9828405324      -35.5531648050      -10.4324199678  W2        399             0.0000000000
      1197       399  TIP3      H2            -18.6036905324      -35.2777448050      -10.9927399678  W2        399             0.0000000000
      1198       400  TIP3      OH2            -4.2869605324      -20.7776548050       -8.3572299678  W2        400             0.0000000000
      1199       400  TIP3      H1             -3.6346705324      -21.1254448050       -8.9653199678  W2        400             0.0000000000
      1200       400  TIP3      H2             -3.7765805324      -20.2893348050       -7.7112599678  W2        400             0.0000000000
      1201       401  TIP3      OH2           -19.0941405324      -37.0239248050       -1.9587199678  W2        401             0.0000000000
      1202       401  TIP3      H1            -19.7590905324      -37.2698948050       -1.3156299678  W2        401             0.0000000000
      1203       401  TIP3      H2            -19.5370105324      -36.4018848050       -2.5359199678  W2        401             0.0000000000
      1204       402  TIP3      OH2           -16.9022105324      -23.8485148050        2.1858600322  W2        402             0.0000000000
      1205       402  TIP3      H1            -17.7229605324      -23.6738648050        1.7253300322  W2        402             0.0000000000
      1206       402  TIP3      H2            -17.1544305324      -23.9220448050        3.1063000322  W2        402             0.0000000000
      1207       403  TIP3      OH2           -13.9479205324      -22.8743948050       -1.5557399678  W2        403             0.0000000000
      1208       403  TIP3      H1            -14.3728105324      -22.0645448050       -1.8382799678  W2        403             0.0000000000
      1209       403  TIP3      H2            -13.0436405324      -22.7889848050       -1.8577599678  W2        403             0.0000000000
      1210       404  TIP3      OH2            -9.6367805324      -21.4753948050        1.4036300322  W2        404             0.0000000000
      1211       404  TIP3      H1             -9.4520305324      -21.8087848050        2.2816600322  W2        404             0.0000000000
      1212       404  TIP3      H2             -8.7903305324      -21.1655348050        1.0815500322  W2        404             0.0000000000
      1213       405  TIP3      OH2            -7.2917405324      -20.1895048050        0.6477700322  W2        405             0.0000000000
      1214       405  TIP3      H1             -6.6148505324      -20.8222748050        0.4076900322  W2        405             0.0000000000
      1215       405  TIP3      H2             -6.9698605324      -19.7884548050        1.4551000322  W2        405             0.0000000000
      1216       406  TIP3      OH2            -2.3743605324      -37.5999548050       -0.2727299678  W2        406             0.0000000000
      1217       406  TIP3      H1             -3.1870105324      -37.2749248050       -0.6602599678  W2        406             0.0000000000
      1218       406  TIP3      H2             -2.1415105324      -38.3601048050       -0.8058199678  W2        406             0.0000000000
      1219       407  TIP3      OH2           -16.5462505324      -19.6180048050       -1.5082099678  W2        407             0.0000000000
      1220       407  TIP3      H1            -17.2666105324      -19.1779048050       -1.9594399678  W2        407             0.0000000000
      1221       407  TIP3      H2            -16.9118505324      -19.8685348050       -0.6598099678  W2        407             0.0000000000
      1222       408  TIP3      OH2           -14.0789905324      -20.0176148050       -2.4784899678  W2        408             0.0000000000
      1223       408  TIP3      H1            -14.9437705324      -19.9457648050       -2.0744799678  W2        408             0.0000000000
      1224       408  TIP3      H2            -14.1340905324      -19.4708848050       -3.2622399678  W2        408             0.0000000000
      1225       409  TIP3      OH2            -9.3684305324      -20.1297248050       -3.3028899678  W2        409             0.0000000000
      1226       409  TIP3      H1             -9.8250305324      -19.6007548050       -3.9570499678  W2        409             0.0000000000
      1227       409  TIP3      H2             -9.2056305324      -19.5265848050       -2.5776599678  W2        409             0.0000000000
      1228       410  TIP3      OH2            -7.0408005324      -21.2517648050       -2.3578599678  W2        410             0.0000000000
      1229       410  TIP3      H1             -7.9454305324      -21.0867448050       -2.6236499678  W2        410             0.0000000000
      1230       410  TIP3      H2             -6.6119405324      -20.3985448050       -2.4235199678  W2        410             0.0000000000
      1231       411  TIP3      OH2            -4.4366105324      -19.6818548050       -2.0630799678  W2        411             0.0000000000
      1232       411  TIP3      H1             -4.6184105324      -18.7659648050       -2.2735899678  W2        411             0.0000000000
      1233       411  TIP3      H2             -4.2598305324      -20.0921448050       -2.9096199678  W2        411             0.0000000000
      1234       412  TIP3      OH2           -17.1314405324      -20.9947548050       -4.5980299678  W2        412             0.0000000000
      1235       412  TIP3      H1            -17.1498405324      -21.4202448050       -3.7407999678  W2        412             0.0000000000
      1236       412  TIP3      H2            -16.3266505324      -21.3132548050       -5.0068099678  W2        412             0.0000000000
      1237       413  TIP3      OH2           -14.9901305324      -22.2848848050       -5.9430399678  W2        413             0.0000000000
      1238       413  TIP3      H1            -15.2090605324      -23.2011448050       -5.7734399678  W2        413             0.0000000000
      1239       413  TIP3      H2            -14.1659105324      -22.1448448050       -5.4768999678  W2        413             0.0000000000
      1240       414  TIP3      OH2           -12.4528805324      -21.8149548050       -5.0942399678  W2        414             0.0000000000
      1241       414  TIP3      H1            -12.2403105324      -22.7030548050       -5.3811499678  W2        414             0.0000000000
      1242       414  TIP3      H2            -12.3883705324      -21.8491848050       -4.1398399678  W2        414             0.0000000000
      1243       415  TIP3      OH2            -8.9445105324      -36.1508948050       -5.9499099678  W2        415             0.0000000000
      1244       415  TIP3      H1             -9.6188305324      -36.7803348050       -5.6943299678  W2        415             0.0000000000
      1245       415  TIP3      H2             -8.3805905324      -36.6350048050       -6.5531199678  W2        415             0.0000000000
      1246       416  TIP3      OH2            -3.8017905324      -38.0434948050       -5.8371999678  W2        416             0.0000000000
      1247       416  TIP3      H1             -3.1980305324      -37.4959548050       -6.3390999678  W2        416             0.0000000000
      1248       416  TIP3      H2             -4.6715905324      -37.7244548050       -6.0777899678  W2        416             0.0000000000
      1249       417  TIP3      OH2            -2.0747505324      -36.9046248050       -7.5041099678  W2        417             0.0000000000
      1250       417  TIP3      H1             -1.4630005324      -37.4190548050       -8.0307499678  W2        417             0.0000000000
      1251       417  TIP3      H2             -1.6924105324      -36.0274148050       -7.4806699678  W2        417             0.0000000000
      1252       418  TIP3      OH2           -16.6177605324      -37.5168648050       -8.1279199678  W2        418             0.0000000000
      1253       418  TIP3      H1            -17.3947805324      -37.7513748050       -8.6353299678  W2        418             0.0000000000
      1254       418  TIP3      H2            -16.0874005324      -38.3136548050       -8.1191199678  W2        418             0.0000000000
      1255       419  TIP3      OH2           -17.7814205324      -37.7190548050      -12.3243099678  W2        419             0.0000000000
      1256       419  TIP3      H1            -17.3423505324      -37.1080048050      -12.9159599678  W2        419             0.0000000000
      1257       419  TIP3      H2            -18.4151805324      -37.1806448050      -11.8503099678  W2        419             0.0000000000
      1258       420  TIP3      OH2           -12.0385005324      -37.5901548050       -8.3146099678  W2        420             0.0000000000
      1259       420  TIP3      H1            -11.1641605324      -37.2017248050       -8.3441799678  W2        420             0.0000000000
      1260       420  TIP3      H2            -12.1744205324      -37.8053748050       -7.3918899678  W2        420             0.0000000000
      1261       421  TIP3      OH2            -6.4816605324      -37.5601748050       -6.6654399678  W2        421             0.0000000000
      1262       421  TIP3      H1             -6.4055005324      -37.4650148050       -7.6148399678  W2        421             0.0000000000
      1263       421  TIP3      H2             -6.7567405324      -38.4678848050       -6.5365299678  W2        421             0.0000000000
      1264       422  TIP3      OH2            -5.1284005324      -37.5343948050      -10.9729399678  W2        422             0.0000000000
      1265       422  TIP3      H1             -5.8312905324      -36.9194748050      -11.1827999678  W2        422             0.0000000000
      1266       422  TIP3      H2             -5.5732605324      -38.3717248050      -10.8418499678  W2        422             0.0000000000
      1267       423  TIP3      OH2           -17.8804705324      -21.7708348050      -11.4267999678  W2        423             0.0000000000
      1268       423  TIP3      H1            -18.5654805324      -21.8089448050      -12.0942899678  W2        423             0.0000000000
      1269       423  TIP3      H2            -17.8767505324      -20.8580748050      -11.1385899678  W2        423             0.0000000000
      1270       424  TIP3      OH2           -15.9205105324      -35.8029048050      -13.8818999678  W2        424             0.0000000000
      1271       424  TIP3      H1            -15.4291705324      -36.4326648050      -14.4093499678  W2        424             0.0000000000
      1272       424  TIP3      H2            -15.2968805324      -35.5069648050      -13.2187799678  W2        424             0.0000000000
      1273       425  TIP3      OH2           -10.8945005324      -35.5097548050      -11.4248499678  W2        425             0.0000000000
      1274       425  TIP3      H1            -10.7163705324      -36.1564348050      -10.7419899678  W2        425             0.0000000000
      1275       425  TIP3      H2            -10.9478805324      -34.6759848050      -10.9577399678  W2        425             0.0000000000
      1276       426  TIP3      OH2            -9.0161205324      -20.5613448050      -13.0291799678  W2        426             0.0000000000
      1277       426  TIP3      H1             -8.1501005324      -20.1946048050      -13.2073599678  W2        426             0.0000000000
      1278       426  TIP3      H2             -9.2628405324      -21.0005448050      -13.8430999678  W2        426             0.0000000000
      1279       427  TIP3      OH2            -2.3071605324      -20.9983148050      -10.3500699678  W2        427             0.0000000000
      1280       427  TIP3      H1             -2.5014505324      -21.7461048050      -10.9151099678  W2        427             0.0000000000
      1281       427  TIP3      H2             -2.3461505324      -20.2403048050      -10.9332799678  W2        427             0.0000000000
      1282       428  TIP3      OH2           -16.6599605324      -37.0026748050        1.3897000322  W2        428             0.0000000000
      1283       428  TIP3      H1            -17.0261405324      -37.7684148050        1.8321700322  W2        428             0.0000000000
      1284       428  TIP3      H2            -15.7471105324      -36.9736548050        1.6762100322  W2        428             0.0000000000
      1285       429  TIP3      OH2           -14.6868805324      -37.6522348050        2.9254100322  W2        429             0.0000000000
      1286       429  TIP3      H1            -13.7885205324      -37.9262148050        2.7407500322  W2        429             0.0000000000
      1287       429  TIP3      H2            -15.0735705324      -38.3946348050        3.3896700322  W2        429             0.0000000000
      1288       430  TIP3      OH2           -16.0623505324      -20.8507548050      -14.4015899678  W2        430             0.0000000000
      1289       430  TIP3      H1            -16.3298905324      -20.5644648050      -13.5282799678  W2        430             0.0000000000
      1290       430  TIP3      H2            -15.2910905324      -21.3968348050      -14.2493399678  W2        430             0.0000000000
      1291       431  TIP3      OH2            -6.2656505324      -38.3197048050        3.1076900322  W2        431             0.0000000000
      1292       431  TIP3      H1             -6.1889305324      -38.7456348050        3.9614600322  W2        431             0.0000000000
      1293       431  TIP3      H2             -5.3719905324      -38.3062348050        2.7650400322  W2        431             0.0000000000
      1294       432  TIP3      OH2            -3.0895405324      -22.2470748050        1.8001100322  W2        432             0.0000000000
      1295       432  TIP3      H1             -3.8713505324      -22.4332748050        1.2801700322  W2        432             0.0000000000
      1296       432  TIP3      H2             -3.1615505324      -21.3176448050        2.0173600322  W2        432             0.0000000000
      1297       433  TIP3      OH2            11.3164994676      -28.3606348050       -8.1691699678  W2        433             0.0000000000
      1298       433  TIP3      H1             11.4056094676      -27.4168148050       -8.3014599678  W2        433             0.0000000000
      1299       433  TIP3      H2             10.6782594676      -28.6359948050       -8.8272299678  W2        433             0.0000000000
      1300       434  TIP3      OH2            10.2496294676      -29.1055648050       -4.7503499678  W2        434             0.0000000000
      1301       434  TIP3      H1             10.2113794676      -29.7519348050       -4.0453899678  W2        434             0.0000000000
      1302       434  TIP3      H2              9.9272794676      -29.5721248050       -5.5214799678  W2        434             0.0000000000
      1303       435  TIP3      OH2             2.6181294676      -29.4913548050       -3.1573599678  W2        435             0.0000000000
      1304       435  TIP3      H1              2.6593394676      -30.1170248050       -2.4341199678  W2        435             0.0000000000
      1305       435  TIP3      H2              3.3208994676      -28.8674948050       -2.9753199678  W2        435             0.0000000000
      1306       436  TIP3      OH2            13.9556494676      -26.1665248050       -6.4488399678  W2        436             0.0000000000
      1307       436  TIP3      H1             13.5149194676      -26.8869248050       -5.9982799678  W2        436             0.0000000000
      1308       436  TIP3      H2             13.9426194676      -25.4458048050       -5.8190699678  W2        436             0.0000000000
      1309       437  TIP3      OH2             3.5414394676      -25.0414648050       -4.6224499678  W2        437             0.0000000000
      1310       437  TIP3      H1              3.1719594676      -25.8434148050       -4.9920199678  W2        437             0.0000000000
      1311       437  TIP3      H2              4.4825494676      -25.2099748050       -4.5761099678  W2        437             0.0000000000
      1312       438  TIP3      OH2             0.1514894676      -31.3812048050       -9.2295699678  W2        438             0.0000000000
      1313       438  TIP3      H1             -0.2961705324      -30.5353348050       -9.2479199678  W2        438             0.0000000000
      1314       438  TIP3      H2             -0.4093905324      -31.9607848050       -9.7450599678  W2        438             0.0000000000
      1315       439  TIP3      OH2             0.8620994676      -29.2192448050       -7.1037699678  W2        439             0.0000000000
      1316       439  TIP3      H1              1.0754494676      -29.9890848050       -6.5764699678  W2        439             0.0000000000
      1317       439  TIP3      H2              1.5998594676      -29.1295748050       -7.7070099678  W2        439             0.0000000000
      1318       440  TIP3      OH2            11.0671994676      -21.0623548050       -6.2367999678  W2        440             0.0000000000
      1319       440  TIP3      H1             11.6868394676      -21.7388848050       -6.5098799678  W2        440             0.0000000000
      1320       440  TIP3      H2             10.8589394676      -21.2802748050       -5.3283099678  W2        440             0.0000000000
      1321       441  TIP3      OH2             8.6390694676      -26.6734248050       -4.3442499678  W2        441             0.0000000000
      1322       441  TIP3      H1              8.9428594676      -27.3592848050       -4.9388399678  W2        441             0.0000000000
      1323       441  TIP3      H2              9.3604694676      -26.5545548050       -3.7264499678  W2        441             0.0000000000
      1324       442  TIP3      OH2            17.3020494676      -35.0718948050       -3.4836299678  W2        442             0.0000000000
      1325       442  TIP3      H1             17.3512694676      -34.4617748050       -2.7477199678  W2        442             0.0000000000
      1326       442  TIP3      H2             17.7275594676      -34.6108048050       -4.2065199678  W2        442             0.0000000000
      1327       443  TIP3      OH2            11.7797694676      -32.2791848050       -4.0167699678  W2        443             0.0000000000
      1328       443  TIP3      H1             11.9223594676      -33.2254848050       -3.9966099678  W2        443             0.0000000000
      1329       443  TIP3      H2             11.6736694676      -32.0722048050       -4.9452799678  W2        443             0.0000000000
      1330       444  TIP3      OH2             4.9345994676      -34.1775448050       -6.7442899678  W2        444             0.0000000000
      1331       444  TIP3      H1              4.9777094676      -33.3176948050       -7.1626599678  W2        444             0.0000000000
      1332       444  TIP3      H2              4.4770094676      -34.7300748050       -7.3779699678  W2        444             0.0000000000
      1333       445  TIP3      OH2            12.6568694676      -34.0469848050       -8.3434599678  W2        445             0.0000000000
      1334       445  TIP3      H1             13.3032994676      -34.3756648050       -7.7186999678  W2        445             0.0000000000
      1335       445  TIP3      H2             13.1668094676      -33.5290848050       -8.9663199678  W2        445             0.0000000000
      1336       446  TIP3      OH2             1.5547494676      -31.7809648050       -5.9821499678  W2        446             0.0000000000
      1337       446  TIP3      H1              2.2084094676      -32.3307948050       -5.5501399678  W2        446             0.0000000000
      1338       446  TIP3      H2              1.5786794676      -32.0550648050       -6.8989499678  W2        446             0.0000000000
      1339       447  TIP3      OH2             6.7111994676      -30.2308348050       -6.7669999678  W2        447             0.0000000000
      1340       447  TIP3      H1              7.3272994676      -30.7572948050       -6.2575999678  W2        447             0.0000000000
      1341       447  TIP3      H2              6.1250794676      -30.8709648050       -7.1706399678  W2        447             0.0000000000
      1342       448  TIP3      OH2            17.6935094676      -33.5939748050       -1.2476499678  W2        448             0.0000000000
      1343       448  TIP3      H1             17.0049694676      -32.9359048050       -1.3429899678  W2        448             0.0000000000
      1344       448  TIP3      H2             17.7089694676      -33.7911848050       -0.3111099678  W2        448             0.0000000000
      1345       449  TIP3      OH2             3.7447894676      -35.2597048050       -2.6702099678  W2        449             0.0000000000
      1346       449  TIP3      H1              3.5259594676      -34.7296448050       -3.4366099678  W2        449             0.0000000000
      1347       449  TIP3      H2              3.0768794676      -35.0331548050       -2.0230699678  W2        449             0.0000000000
      1348       450  TIP3      OH2            11.1137694676      -25.7595948050       -9.1262999678  W2        450             0.0000000000
      1349       450  TIP3      H1             10.8182794676      -26.0823648050       -9.9776099678  W2        450             0.0000000000
      1350       450  TIP3      H2             10.7895494676      -24.8599248050       -9.0850399678  W2        450             0.0000000000
      1351       451  TIP3      OH2             6.3139294676      -27.5841348050       -2.3828399678  W2        451             0.0000000000
      1352       451  TIP3      H1              5.5738394676      -26.9859848050       -2.2793199678  W2        451             0.0000000000
      1353       451  TIP3      H2              7.0278794676      -27.0301748050       -2.6984799678  W2        451             0.0000000000
      1354       452  TIP3      OH2            14.4207094676      -34.7560548050       -6.3628699678  W2        452             0.0000000000
      1355       452  TIP3      H1             14.2055094676      -35.5217148050       -5.8302699678  W2        452             0.0000000000
      1356       452  TIP3      H2             15.0764494676      -34.2835948050       -5.8500199678  W2        452             0.0000000000
      1357       453  TIP3      OH2             3.3385194676      -33.3675248050       -4.7179899678  W2        453             0.0000000000
      1358       453  TIP3      H1              3.9521494676      -32.7347648050       -4.3447499678  W2        453             0.0000000000
      1359       453  TIP3      H2              3.8505894676      -33.8400248050       -5.3742999678  W2        453             0.0000000000
      1360       454  TIP3      OH2             4.7213594676      -25.6198348050       -1.5956899678  W2        454             0.0000000000
      1361       454  TIP3      H1              4.7161194676      -24.7404848050       -1.9737599678  W2        454             0.0000000000
      1362       454  TIP3      H2              3.8677694676      -25.7034248050       -1.1706999678  W2        454             0.0000000000
      1363       455  TIP3      OH2             0.8424494676      -25.9490448050      -10.8137599678  W2        455             0.0000000000
      1364       455  TIP3      H1              0.5705394676      -25.7199448050      -11.7024699678  W2        455             0.0000000000
      1365       455  TIP3      H2              0.8880194676      -25.1111648050      -10.3532299678  W2        455             0.0000000000
      1366       456  TIP3      OH2            14.4674194676      -24.3274548050       -4.1009099678  W2        456             0.0000000000
      1367       456  TIP3      H1             13.5257894676      -24.2690648050       -3.9392199678  W2        456             0.0000000000
      1368       456  TIP3      H2             14.7440294676      -23.4214048050       -4.2379399678  W2        456             0.0000000000
      1369       457  TIP3      OH2            14.7681194676      -36.0409248050       -2.6835199678  W2        457             0.0000000000
      1370       457  TIP3      H1             14.0320394676      -35.4302148050       -2.7213899678  W2        457             0.0000000000
      1371       457  TIP3      H2             15.4515194676      -35.6260248050       -3.2098799678  W2        457             0.0000000000
      1372       458  TIP3      OH2             7.7712594676      -37.9541948050       -5.2177199678  W2        458             0.0000000000
      1373       458  TIP3      H1              7.6536794676      -38.9025948050       -5.2718899678  W2        458             0.0000000000
      1374       458  TIP3      H2              6.9162694676      -37.6215848050       -4.9446099678  W2        458             0.0000000000
      1375       459  TIP3      OH2            12.7195394676      -22.5461048050       -7.4757499678  W2        459             0.0000000000
      1376       459  TIP3      H1             13.1447694676      -23.2533148050       -7.9607899678  W2        459             0.0000000000
      1377       459  TIP3      H2             13.0365394676      -21.7448348050       -7.8925299678  W2        459             0.0000000000
      1378       460  TIP3      OH2            13.8791894676      -24.6452548050       -8.9670899678  W2        460             0.0000000000
      1379       460  TIP3      H1             13.6216694676      -25.3352448050       -9.5784999678  W2        460             0.0000000000
      1380       460  TIP3      H2             13.9502694676      -25.0881348050       -8.1214999678  W2        460             0.0000000000
      1381       461  TIP3      OH2            15.5652094676      -26.0785848050       -0.4897399678  W2        461             0.0000000000
      1382       461  TIP3      H1             15.7048394676      -26.6703348050       -1.2290399678  W2        461             0.0000000000
      1383       461  TIP3      H2             15.7324894676      -25.2059948050       -0.8458599678  W2        461             0.0000000000
      1384       462  TIP3      OH2            10.0377494676      -29.1166348050      -10.7171399678  W2        462             0.0000000000
      1385       462  TIP3      H1              9.3262994676      -28.5816648050      -11.0690899678  W2        462             0.0000000000
      1386       462  TIP3      H2             10.7287094676      -29.0614248050      -11.3772499678  W2        462             0.0000000000
      1387       463  TIP3      OH2            10.0916694676      -30.6592048050      -13.6786399678  W2        463             0.0000000000
      1388       463  TIP3      H1             10.7926594676      -30.6365148050      -13.0272399678  W2        463             0.0000000000
      1389       463  TIP3      H2             10.3939594676      -31.2872348050      -14.3347099678  W2        463             0.0000000000
      1390       464  TIP3      OH2            17.4071394676      -29.7387848050       -2.4236999678  W2        464             0.0000000000
      1391       464  TIP3      H1             16.7545494676      -29.0442248050       -2.3346099678  W2        464             0.0000000000
      1392       464  TIP3      H2             17.8721694676      -29.5286948050       -3.2335399678  W2        464             0.0000000000
      1393       465  TIP3      OH2            13.4435194676      -28.9073048050       -9.7655499678  W2        465             0.0000000000
      1394       465  TIP3      H1             12.7116194676      -28.6789348050       -9.1924899678  W2        465             0.0000000000
      1395       465  TIP3      H2             13.8907394676      -29.6210348050       -9.3107999678  W2        465             0.0000000000
      1396       466  TIP3      OH2            13.3408694676      -30.7330448050       -0.6978499678  W2        466             0.0000000000
      1397       466  TIP3      H1             13.4207794676      -29.9696048050       -0.1259999678  W2        466             0.0000000000
      1398       466  TIP3      H2             12.7396394676      -30.4538048050       -1.3883399678  W2        466             0.0000000000
      1399       467  TIP3      OH2             5.0888894676      -28.2766848050       -7.8830499678  W2        467             0.0000000000
      1400       467  TIP3      H1              4.7584094676      -28.6473448050       -8.7013499678  W2        467             0.0000000000
      1401       467  TIP3      H2              5.6772994676      -28.9472848050       -7.5362199678  W2        467             0.0000000000
      1402       468  TIP3      OH2             6.4556394676      -24.8486248050       -5.2018299678  W2        468             0.0000000000
      1403       468  TIP3      H1              6.3607694676      -25.4273148050       -5.9583699678  W2        468             0.0000000000
      1404       468  TIP3      H2              7.1849994676      -25.2200548050       -4.7055499678  W2        468             0.0000000000
      1405       469  TIP3      OH2             5.4554394676      -29.5081248050       -4.2495499678  W2        469             0.0000000000
      1406       469  TIP3      H1              6.0206894676      -29.3867048050       -5.0124299678  W2        469             0.0000000000
      1407       469  TIP3      H2              5.7743294676      -28.8706248050       -3.6106999678  W2        469             0.0000000000
      1408       470  TIP3      OH2            11.7646594676      -24.0049348050       -3.5154999678  W2        470             0.0000000000
      1409       470  TIP3      H1             11.5243194676      -23.3426248050       -2.8675799678  W2        470             0.0000000000
      1410       470  TIP3      H2             11.5664794676      -24.8394148050       -3.0905399678  W2        470             0.0000000000
      1411       471  TIP3      OH2             6.3355094676      -25.1088548050        0.4676400322  W2        471             0.0000000000
      1412       471  TIP3      H1              6.0242594676      -24.3265348050        0.9229600322  W2        471             0.0000000000
      1413       471  TIP3      H2              5.6855294676      -25.2619448050       -0.2181599678  W2        471             0.0000000000
      1414       472  TIP3      OH2            12.3144694676      -29.7450148050      -12.0804299678  W2        472             0.0000000000
      1415       472  TIP3      H1             12.8940194676      -29.5949848050      -11.3335399678  W2        472             0.0000000000
      1416       472  TIP3      H2             12.7284694676      -29.2742748050      -12.8037899678  W2        472             0.0000000000
      1417       473  TIP3      OH2             3.2554994676      -28.9107448050       -0.3037899678  W2        473             0.0000000000
      1418       473  TIP3      H1              3.3258194676      -28.2600648050        0.3947100322  W2        473             0.0000000000
      1419       473  TIP3      H2              2.3647194676      -28.8079948050       -0.6386999678  W2        473             0.0000000000
      1420       474  TIP3      OH2            10.0409594676      -23.0081648050       -8.6451199678  W2        474             0.0000000000
      1421       474  TIP3      H1             10.5147194676      -22.7125348050       -7.8676999678  W2        474             0.0000000000
      1422       474  TIP3      H2              9.4778894676      -22.2700048050       -8.8781599678  W2        474             0.0000000000
      1423       475  TIP3      OH2             4.5750994676      -23.0373548050        1.2310200322  W2        475             0.0000000000
      1424       475  TIP3      H1              4.5826294676      -23.1733848050        0.2835700322  W2        475             0.0000000000
      1425       475  TIP3      H2              3.6591394676      -23.1545448050        1.4830200322  W2        475             0.0000000000
      1426       476  TIP3      OH2            16.0133094676      -37.9949748050      -12.2674599678  W2        476             0.0000000000
      1427       476  TIP3      H1             15.1133794676      -37.8560748050      -11.9723999678  W2        476             0.0000000000
      1428       476  TIP3      H2             16.2651494676      -37.1635148050      -12.6692899678  W2        476             0.0000000000
      1429       477  TIP3      OH2             4.0791594676      -29.2072548050      -10.2937699678  W2        477             0.0000000000
      1430       477  TIP3      H1              3.7872894676      -28.4390848050      -10.7846399678  W2        477             0.0000000000
      1431       477  TIP3      H2              3.4046794676      -29.8666348050      -10.4566299678  W2        477             0.0000000000
      1432       478  TIP3      OH2            17.2024494676      -23.6287348050      -13.8910699678  W2        478             0.0000000000
      1433       478  TIP3      H1             17.2757994676      -22.6897148050      -13.7205399678  W2        478             0.0000000000
      1434       478  TIP3      H2             18.1079594676      -23.9338748050      -13.9473399678  W2        478             0.0000000000
      1435       479  TIP3      OH2             0.1721694676      -26.8443348050       -1.4787899678  W2        479             0.0000000000
      1436       479  TIP3      H1             -0.3289905324      -26.8723948050       -2.2938199678  W2        479             0.0000000000
      1437       479  TIP3      H2              0.1775394676      -27.7500148050       -1.1690599678  W2        479             0.0000000000
      1438       480  TIP3      OH2            -0.0775605324      -24.0639548050       -4.5947699678  W2        480             0.0000000000
      1439       480  TIP3      H1              0.8684994676      -24.2082548050       -4.6138199678  W2        480             0.0000000000
      1440       480  TIP3      H2             -0.1899305324      -23.2796748050       -4.0576499678  W2        480             0.0000000000
      1441       481  TIP3      OH2            18.1202894676      -23.3979848050        1.0876000322  W2        481             0.0000000000
      1442       481  TIP3      H1             18.0709694676      -24.3531748050        1.0503600322  W2        481             0.0000000000
      1443       481  TIP3      H2             17.2935194676      -23.1304548050        1.4889800322  W2        481             0.0000000000
      1444       482  TIP3      OH2             9.0986894676      -23.8240648050       -0.0362599678  W2        482             0.0000000000
      1445       482  TIP3      H1              9.1861494676      -22.9976048050        0.4386500322  W2        482             0.0000000000
      1446       482  TIP3      H2              8.2351994676      -24.1536848050        0.2126700322  W2        482             0.0000000000
      1447       483  TIP3      OH2             9.5132694676      -20.0516948050      -10.2301999678  W2        483             0.0000000000
      1448       483  TIP3      H1              9.4378694676      -20.1729748050      -11.1766799678  W2        483             0.0000000000
      1449       483  TIP3      H2              9.5461394676      -19.1024248050      -10.1117399678  W2        483             0.0000000000
      1450       484  TIP3      OH2             3.1666494676      -21.2629948050       -8.4492999678  W2        484             0.0000000000
      1451       484  TIP3      H1              3.3186894676      -21.6109548050       -7.5706499678  W2        484             0.0000000000
      1452       484  TIP3      H2              2.3156894676      -21.6192648050       -8.7045799678  W2        484             0.0000000000
      1453       485  TIP3      OH2            12.6148694676      -20.8976748050      -13.2279599678  W2        485             0.0000000000
      1454       485  TIP3      H1             12.9897094676      -21.6420648050      -13.6986999678  W2        485             0.0000000000
      1455       485  TIP3      H2             12.6192394676      -21.1676148050      -12.3096299678  W2        485             0.0000000000
      1456       486  TIP3      OH2            12.2836794676      -20.9719648050      -10.4787399678  W2        486             0.0000000000
      1457       486  TIP3      H1             11.3486594676      -20.8717748050      -10.3000399678  W2        486             0.0000000000
      1458       486  TIP3      H2             12.5638694676      -21.6813648050       -9.9004199678  W2        486             0.0000000000
      1459       487  TIP3      OH2            15.2722694676      -31.9047348050        1.5678200322  W2        487             0.0000000000
      1460       487  TIP3      H1             14.8649494676      -31.4241748050        0.8471500322  W2        487             0.0000000000
      1461       487  TIP3      H2             15.3128394676      -32.8101348050        1.2599000322  W2        487             0.0000000000
      1462       488  TIP3      OH2             2.4212194676      -25.5207948050       -0.4355099678  W2        488             0.0000000000
      1463       488  TIP3      H1              2.6373494676      -25.8822348050        0.4240700322  W2        488             0.0000000000
      1464       488  TIP3      H2              1.5656894676      -25.8954148050       -0.6451599678  W2        488             0.0000000000
      1465       489  TIP3      OH2             5.0400194676      -37.0507448050       -4.4400899678  W2        489             0.0000000000
      1466       489  TIP3      H1              4.1783894676      -37.1379248050       -4.8477999678  W2        489             0.0000000000
      1467       489  TIP3      H2              5.0175894676      -36.1947348050       -4.0123299678  W2        489             0.0000000000
      1468       490  TIP3      OH2             9.7027994676      -37.3287048050       -1.0653899678  W2        490             0.0000000000
      1469       490  TIP3      H1             10.1231094676      -37.7439948050       -0.3123299678  W2        490             0.0000000000
      1470       490  TIP3      H2              8.7697594676      -37.5073748050       -0.9481899678  W2        490             0.0000000000
      1471       491  TIP3      OH2            13.0292894676      -33.5731848050       -0.2119399678  W2        491             0.0000000000
      1472       491  TIP3      H1             12.5152394676      -33.6989648050        0.5856600322  W2        491             0.0000000000
      1473       491  TIP3      H2             12.8737594676      -32.6608748050       -0.4563199678  W2        491             0.0000000000
      1474       492  TIP3      OH2            13.7917794676      -28.7121848050      -14.4506399678  W2        492             0.0000000000
      1475       492  TIP3      H1             13.8338594676      -28.9347948050      -15.3806399678  W2        492             0.0000000000
      1476       492  TIP3      H2             14.6409894676      -28.3134748050      -14.2606499678  W2        492             0.0000000000
      1477       493  TIP3      OH2             9.3645294676      -34.8363648050      -13.7803099678  W2        493             0.0000000000
      1478       493  TIP3      H1              9.1110094676      -34.8172048050      -12.8574999678  W2        493             0.0000000000
      1479       493  TIP3      H2              9.1077394676      -35.7078248050      -14.0816899678  W2        493             0.0000000000
      1480       494  TIP3      OH2             5.1310294676      -32.0852948050       -3.3450699678  W2        494             0.0000000000
      1481       494  TIP3      H1              4.4892394676      -32.1255648050       -2.6360599678  W2        494             0.0000000000
      1482       494  TIP3      H2              5.1682294676      -31.1588248050       -3.5827699678  W2        494             0.0000000000
      1483       495  TIP3      OH2             5.1279394676      -31.8642848050       -8.4330699678  W2        495             0.0000000000
      1484       495  TIP3      H1              4.2352294676      -32.2046748050       -8.4916899678  W2        495             0.0000000000
      1485       495  TIP3      H2              5.5785994676      -32.2411948050       -9.1887499678  W2        495             0.0000000000
      1486       496  TIP3      OH2            10.6634894676      -31.4482548050       -9.6159899678  W2        496             0.0000000000
      1487       496  TIP3      H1             10.2545194676      -30.6333948050       -9.9075099678  W2        496             0.0000000000
      1488       496  TIP3      H2             11.3841094676      -31.5882448050      -10.2302799678  W2        496             0.0000000000
      1489       497  TIP3      OH2             9.7656494676      -31.2726148050        1.8720800322  W2        497             0.0000000000
      1490       497  TIP3      H1              9.2030294676      -31.9774548050        2.1928600322  W2        497             0.0000000000
      1491       497  TIP3      H2             10.5919894676      -31.3934248050        2.3398400322  W2        497             0.0000000000
      1492       498  TIP3      OH2            11.6682594676      -32.0022148050       -6.8020199678  W2        498             0.0000000000
      1493       498  TIP3      H1             11.4727094676      -31.3965348050       -7.5169599678  W2        498             0.0000000000
      1494       498  TIP3      H2             11.8495194676      -32.8356948050       -7.2363899678  W2        498             0.0000000000
      1495       499  TIP3      OH2             2.8810794676      -31.7649448050       -1.4778699678  W2        499             0.0000000000
      1496       499  TIP3      H1              2.8430194676      -31.3647848050       -0.6091599678  W2        499             0.0000000000
      1497       499  TIP3      H2              2.3901894676      -32.5817048050       -1.3875799678  W2        499             0.0000000000
      1498       500  TIP3      OH2             6.2468194676      -34.3907148050      -14.6792699678  W2        500             0.0000000000
      1499       500  TIP3      H1              5.8158894676      -34.8357048050      -13.9495299678  W2        500             0.0000000000
      1500       500  TIP3      H2              5.5286894676      -34.0190848050      -15.1915199678  W2        500             0.0000000000
      1501       501  TIP3      OH2            -0.5108405324      -34.6487648050       -7.6273999678  W2        501             0.0000000000
      1502       501  TIP3      H1              0.1199294676      -34.6775548050       -6.9080099678  W2        501             0.0000000000
      1503       501  TIP3      H2             -0.0614105324      -35.0738948050       -8.3578099678  W2        501             0.0000000000
      1504       502  TIP3      OH2             0.7633694676      -33.9025648050      -12.2033599678  W2        502             0.0000000000
      1505       502  TIP3      H1              1.2375394676      -33.3115748050      -12.7882699678  W2        502             0.0000000000
      1506       502  TIP3      H2              0.0460094676      -33.3722748050      -11.8563499678  W2        502             0.0000000000
      1507       503  TIP3      OH2            10.9321794676      -30.3640848050       -2.1307799678  W2        503             0.0000000000
      1508       503  TIP3      H1             11.2556594676      -30.9951148050       -2.7737299678  W2        503             0.0000000000
      1509       503  TIP3      H2             10.4921094676      -30.8988648050       -1.4700399678  W2        503             0.0000000000
      1510       504  TIP3      OH2             7.7094694676      -34.4365348050       -7.3466599678  W2        504             0.0000000000
      1511       504  TIP3      H1              6.7985794676      -34.3798548050       -7.0580599678  W2        504             0.0000000000
      1512       504  TIP3      H2              8.2147594676      -34.4969848050       -6.5359399678  W2        504             0.0000000000
      1513       505  TIP3      OH2             2.5378094676      -32.8079048050       -8.5198999678  W2        505             0.0000000000
      1514       505  TIP3      H1              1.6486094676      -32.7083548050       -8.8599399678  W2        505             0.0000000000
      1515       505  TIP3      H2              2.8342994676      -33.6496048050       -8.8661099678  W2        505             0.0000000000
      1516       506  TIP3      OH2             6.1909894676      -32.8076448050      -10.8634399678  W2        506             0.0000000000
      1517       506  TIP3      H1              7.1225394676      -32.6786448050      -10.6851299678  W2        506             0.0000000000
      1518       506  TIP3      H2              5.9760194676      -32.1382148050      -11.5129699678  W2        506             0.0000000000
      1519       507  TIP3      OH2            12.1146594676      -35.2019048050       -4.0824799678  W2        507             0.0000000000
      1520       507  TIP3      H1             11.4378194676      -35.0705948050       -3.4185099678  W2        507             0.0000000000
      1521       507  TIP3      H2             11.6291494676      -35.3569548050       -4.8927099678  W2        507             0.0000000000
      1522       508  TIP3      OH2             4.8650094676      -31.6134248050      -13.2968299678  W2        508             0.0000000000
      1523       508  TIP3      H1              4.3225194676      -31.9930448050      -13.9880699678  W2        508             0.0000000000
      1524       508  TIP3      H2              5.6984994676      -31.4189548050      -13.7254199678  W2        508             0.0000000000
      1525       509  TIP3      OH2            15.4021694676      -19.5303648050        2.1942800322  W2        509             0.0000000000
      1526       509  TIP3      H1             15.6020394676      -19.1061748050        1.3598100322  W2        509             0.0000000000
      1527       509  TIP3      H2             16.0575394676      -19.1865448050        2.8013200322  W2        509             0.0000000000
      1528       510  TIP3      OH2             3.0001494676      -27.0562348050        1.8023300322  W2        510             0.0000000000
      1529       510  TIP3      H1              3.7323894676      -26.8016448050        2.3637800322  W2        510             0.0000000000
      1530       510  TIP3      H2              2.2200194676      -26.8516948050        2.3178700322  W2        510             0.0000000000
      1531       511  TIP3      OH2             9.0294394676      -31.6492348050       -5.4596999678  W2        511             0.0000000000
      1532       511  TIP3      H1              9.5937794676      -32.1955748050       -6.0067399678  W2        511             0.0000000000
      1533       511  TIP3      H2              8.8817794676      -32.1710448050       -4.6709399678  W2        511             0.0000000000
      1534       512  TIP3      OH2             4.0314094676      -35.5126248050       -9.0412199678  W2        512             0.0000000000
      1535       512  TIP3      H1              3.7143594676      -36.4150948050       -9.0766799678  W2        512             0.0000000000
      1536       512  TIP3      H2              4.8128194676      -35.5108848050       -9.5940599678  W2        512             0.0000000000
      1537       513  TIP3      OH2             7.6560294676      -33.2606248050       -3.0456599678  W2        513             0.0000000000
      1538       513  TIP3      H1              6.8205594676      -32.8066748050       -2.9354199678  W2        513             0.0000000000
      1539       513  TIP3      H2              8.1800894676      -32.9847748050       -2.2936699678  W2        513             0.0000000000
      1540       514  TIP3      OH2             8.2002894676      -27.0478548050      -11.3610199678  W2        514             0.0000000000
      1541       514  TIP3      H1              7.4553894676      -27.5553248050      -11.6832299678  W2        514             0.0000000000
      1542       514  TIP3      H2              8.0660094676      -26.9990548050      -10.4145399678  W2        514             0.0000000000
      1543       515  TIP3      OH2            15.3501794676      -27.9150348050       -2.5742599678  W2        515             0.0000000000
      1544       515  TIP3      H1             15.9920594676      -27.4584048050       -3.1180399678  W2        515             0.0000000000
      1545       515  TIP3      H2             14.5198694676      -27.8017948050       -3.0368499678  W2        515             0.0000000000
      1546       516  TIP3      OH2            12.0979694676      -34.2338648050      -13.1617599678  W2        516             0.0000000000
      1547       516  TIP3      H1             11.1593894676      -34.1223048050      -13.3128799678  W2        516             0.0000000000
      1548       516  TIP3      H2             12.3951794676      -33.3771748050      -12.8551899678  W2        516             0.0000000000
      1549       517  TIP3      OH2             9.7194994676      -26.8635248050       -0.1241099678  W2        517             0.0000000000
      1550       517  TIP3      H1              9.3741094676      -27.2452848050        0.6828500322  W2        517             0.0000000000
      1551       517  TIP3      H2              9.5195094676      -25.9301648050       -0.0528199678  W2        517             0.0000000000
      1552       518  TIP3      OH2            12.8163194676      -32.3665948050      -11.5010199678  W2        518             0.0000000000
      1553       518  TIP3      H1             13.7082194676      -32.5040948050      -11.1818999678  W2        518             0.0000000000
      1554       518  TIP3      H2             12.8726794676      -31.5759848050      -12.0376699678  W2        518             0.0000000000
      1555       519  TIP3      OH2             3.3251194676      -27.7528548050       -5.5912299678  W2        519             0.0000000000
      1556       519  TIP3      H1              4.0698394676      -27.7552848050       -6.1925799678  W2        519             0.0000000000
      1557       519  TIP3      H2              3.4027794676      -28.5764748050       -5.1097199678  W2        519             0.0000000000
      1558       520  TIP3      OH2            10.3256994676      -25.5894248050      -12.3355599678  W2        520             0.0000000000
      1559       520  TIP3      H1             10.0305394676      -24.7626348050      -11.9540799678  W2        520             0.0000000000
      1560       520  TIP3      H2              9.6226994676      -26.2087348050      -12.1394199678  W2        520             0.0000000000
      1561       521  TIP3      OH2             0.3330894676      -29.2921648050       -0.2763799678  W2        521             0.0000000000
      1562       521  TIP3      H1              0.5559494676      -29.7102048050        0.5553700322  W2        521             0.0000000000
      1563       521  TIP3      H2             -0.2689005324      -29.9046648050       -0.6990999678  W2        521             0.0000000000
      1564       522  TIP3      OH2             7.3495794676      -29.7751748050        1.9365900322  W2        522             0.0000000000
      1565       522  TIP3      H1              7.0536594676      -29.9408748050        1.0415000322  W2        522             0.0000000000
      1566       522  TIP3      H2              8.2810994676      -29.9951448050        1.9259800322  W2        522             0.0000000000
      1567       523  TIP3      OH2            11.9698594676      -24.4019748050       -0.1736099678  W2        523             0.0000000000
      1568       523  TIP3      H1             11.0692894676      -24.2187148050       -0.4412199678  W2        523             0.0000000000
      1569       523  TIP3      H2             12.0039694676      -24.1430448050        0.7472700322  W2        523             0.0000000000
      1570       524  TIP3      OH2            17.7011894676      -32.1571848050      -11.8063499678  W2        524             0.0000000000
      1571       524  TIP3      H1             17.1468194676      -32.5533848050      -12.4785999678  W2        524             0.0000000000
      1572       524  TIP3      H2             17.8015494676      -31.2466648050      -12.0840199678  W2        524             0.0000000000
      1573       525  TIP3      OH2            17.6643894676      -26.3570148050        1.0308000322  W2        525             0.0000000000
      1574       525  TIP3      H1             16.8132394676      -26.1186348050        0.6634400322  W2        525             0.0000000000
      1575       525  TIP3      H2             18.2547294676      -26.3736948050        0.2775100322  W2        525             0.0000000000
      1576       526  TIP3      OH2            15.9963594676      -23.3711448050      -11.3411399678  W2        526             0.0000000000
      1577       526  TIP3      H1             15.6234694676      -24.1967648050      -11.0320799678  W2        526             0.0000000000
      1578       526  TIP3      H2             16.2737094676      -23.5542048050      -12.2387999678  W2        526             0.0000000000
      1579       527  TIP3      OH2            13.1567494676      -28.5631948050       -4.3199499678  W2        527             0.0000000000
      1580       527  TIP3      H1             12.2284394676      -28.7950048050       -4.3470199678  W2        527             0.0000000000
      1581       527  TIP3      H2             13.6078594676      -29.3402148050       -4.6500699678  W2        527             0.0000000000
      1582       528  TIP3      OH2             5.7000594676      -24.2350348050       -8.1870799678  W2        528             0.0000000000
      1583       528  TIP3      H1              6.2272794676      -23.4615948050       -8.3871999678  W2        528             0.0000000000
      1584       528  TIP3      H2              4.8199094676      -24.0101148050       -8.4886799678  W2        528             0.0000000000
      1585       529  TIP3      OH2             1.4548294676      -29.3726248050      -13.5998399678  W2        529             0.0000000000
      1586       529  TIP3      H1              2.0708194676      -28.7459048050      -13.2203599678  W2        529             0.0000000000
      1587       529  TIP3      H2              0.5930894676      -29.0566448050      -13.3281899678  W2        529             0.0000000000
      1588       530  TIP3      OH2             7.1272894676      -26.5720448050       -8.6106499678  W2        530             0.0000000000
      1589       530  TIP3      H1              6.8862894676      -25.6466048050       -8.5691199678  W2        530             0.0000000000
      1590       530  TIP3      H2              6.3866494676      -27.0309148050       -8.2142599678  W2        530             0.0000000000
      1591       531  TIP3      OH2             7.6419494676      -22.4226848050       -2.2955399678  W2        531             0.0000000000
      1592       531  TIP3      H1              8.0044194676      -21.5681248050       -2.5290999678  W2        531             0.0000000000
      1593       531  TIP3      H2              8.1734694676      -22.7145248050       -1.5549099678  W2        531             0.0000000000
      1594       532  TIP3      OH2             5.8103694676      -21.5502848050       -9.0654299678  W2        532             0.0000000000
      1595       532  TIP3      H1              4.8604194676      -21.4445448050       -9.0140999678  W2        532             0.0000000000
      1596       532  TIP3      H2              6.1621794676      -20.7295448050       -8.7206799678  W2        532             0.0000000000
      1597       533  TIP3      OH2            11.1860294676      -26.3236148050       -2.5949799678  W2        533             0.0000000000
      1598       533  TIP3      H1             10.7601594676      -26.5514448050       -1.7685799678  W2        533             0.0000000000
      1599       533  TIP3      H2             11.7666094676      -27.0624348050       -2.7774499678  W2        533             0.0000000000
      1600       534  TIP3      OH2            13.3889194676      -25.3945648050      -13.5210799678  W2        534             0.0000000000
      1601       534  TIP3      H1             13.7422294676      -25.7745848050      -12.7167299678  W2        534             0.0000000000
      1602       534  TIP3      H2             12.4402694676      -25.4880848050      -13.4341499678  W2        534             0.0000000000
      1603       535  TIP3      OH2            13.8444494676      -21.7716648050       -0.1254999678  W2        535             0.0000000000
      1604       535  TIP3      H1             13.2427694676      -22.3273748050       -0.6208699678  W2        535             0.0000000000
      1605       535  TIP3      H2             14.1258194676      -21.1046848050       -0.7517599678  W2        535             0.0000000000
      1606       536  TIP3      OH2            17.8923594676      -20.9153148050      -13.3200599678  W2        536             0.0000000000
      1607       536  TIP3      H1             18.6361494676      -20.3292648050      -13.4598999678  W2        536             0.0000000000
      1608       536  TIP3      H2             17.1981694676      -20.3467348050      -12.9868199678  W2        536             0.0000000000
      1609       537  TIP3      OH2             1.9670394676      -34.5388948050       -0.7182399678  W2        537             0.0000000000
      1610       537  TIP3      H1              1.0742694676      -34.2003548050       -0.7858399678  W2        537             0.0000000000
      1611       537  TIP3      H2              1.8683194676      -35.3942848050       -0.3001599678  W2        537             0.0000000000
      1612       538  TIP3      OH2            14.2548494676      -26.7223648050      -11.2942899678  W2        538             0.0000000000
      1613       538  TIP3      H1             13.9776094676      -27.4504348050      -10.7381799678  W2        538             0.0000000000
      1614       538  TIP3      H2             15.1821494676      -26.6031648050      -11.0890299678  W2        538             0.0000000000
      1615       539  TIP3      OH2             1.6182394676      -22.7344548050       -2.2832999678  W2        539             0.0000000000
      1616       539  TIP3      H1              1.8352694676      -23.6662148050       -2.3143299678  W2        539             0.0000000000
      1617       539  TIP3      H2              1.8645894676      -22.4599548050       -1.4000199678  W2        539             0.0000000000
      1618       540  TIP3      OH2             7.4796994676      -24.2829548050      -15.0740799678  W2        540             0.0000000000
      1619       540  TIP3      H1              7.7186794676      -25.0311448050      -15.6211899678  W2        540             0.0000000000
      1620       540  TIP3      H2              7.2108294676      -24.6707848050      -14.2412999678  W2        540             0.0000000000
      1621       541  TIP3      OH2             6.4167594676      -24.7125748050      -12.6178199678  W2        541             0.0000000000
      1622       541  TIP3      H1              6.5635594676      -25.2325948050      -11.8277299678  W2        541             0.0000000000
      1623       541  TIP3      H2              6.4139294676      -23.8058148050      -12.3112299678  W2        541             0.0000000000
      1624       542  TIP3      OH2             2.8698694676      -27.4602448050      -12.1072799678  W2        542             0.0000000000
      1625       542  TIP3      H1              2.1837994676      -27.1079948050      -11.5403099678  W2        542             0.0000000000
      1626       542  TIP3      H2              3.3926594676      -26.6972848050      -12.3538499678  W2        542             0.0000000000
      1627       543  TIP3      OH2            10.7013794676      -34.7978648050       -1.8283799678  W2        543             0.0000000000
      1628       543  TIP3      H1             11.4001694676      -34.7239948050       -1.1784099678  W2        543             0.0000000000
      1629       543  TIP3      H2             10.3205194676      -35.6623648050       -1.6740899678  W2        543             0.0000000000
      1630       544  TIP3      OH2            11.4858694676      -35.1456948050      -10.7311499678  W2        544             0.0000000000
      1631       544  TIP3      H1             11.7056994676      -34.6741548050      -11.5346099678  W2        544             0.0000000000
      1632       544  TIP3      H2             12.0442694676      -34.7514348050      -10.0610899678  W2        544             0.0000000000
      1633       545  TIP3      OH2             9.1544794676      -23.0152148050      -11.8683999678  W2        545             0.0000000000
      1634       545  TIP3      H1              8.3380894676      -22.5182448050      -11.8159699678  W2        545             0.0000000000
      1635       545  TIP3      H2              9.6841094676      -22.5398648050      -12.5085199678  W2        545             0.0000000000
      1636       546  TIP3      OH2             8.6858594676      -33.4178148050       -9.8963099678  W2        546             0.0000000000
      1637       546  TIP3      H1              9.4981194676      -32.9134948050       -9.8501399678  W2        546             0.0000000000
      1638       546  TIP3      H2              8.4411594676      -33.5628448050       -8.9823499678  W2        546             0.0000000000
      1639       547  TIP3      OH2             9.2214994676      -32.4315448050       -0.7116499678  W2        547             0.0000000000
      1640       547  TIP3      H1              9.3405294676      -31.8580048050        0.0453900322  W2        547             0.0000000000
      1641       547  TIP3      H2              9.8769594676      -33.1196048050       -0.5968699678  W2        547             0.0000000000
      1642       548  TIP3      OH2             9.5695294676      -36.3365148050       -8.9581999678  W2        548             0.0000000000
      1643       548  TIP3      H1              9.2228794676      -35.7194548050       -8.3137699678  W2        548             0.0000000000
      1644       548  TIP3      H2             10.2282194676      -35.8359448050       -9.4396499678  W2        548             0.0000000000
      1645       549  TIP3      OH2             6.4927894676      -21.9714948050      -11.8867099678  W2        549             0.0000000000
      1646       549  TIP3      H1              6.6536594676      -21.1717448050      -12.3874499678  W2        549             0.0000000000
      1647       549  TIP3      H2              6.2955694676      -21.6648948050      -11.0016499678  W2        549             0.0000000000
      1648       550  TIP3      OH2             5.2272294676      -35.2735748050      -12.2709499678  W2        550             0.0000000000
      1649       550  TIP3      H1              5.1437094676      -34.3852648050      -11.9243099678  W2        550             0.0000000000
      1650       550  TIP3      H2              6.1172594676      -35.5389048050      -12.0392699678  W2        550             0.0000000000
      1651       551  TIP3      OH2            15.4260794676      -34.5245148050        0.1233200322  W2        551             0.0000000000
      1652       551  TIP3      H1             14.5096594676      -34.2623448050        0.0356900322  W2        551             0.0000000000
      1653       551  TIP3      H2             15.7615794676      -34.5276148050       -0.7731499678  W2        551             0.0000000000
      1654       552  TIP3      OH2            14.0281794676      -30.7744148050       -5.7809499678  W2        552             0.0000000000
      1655       552  TIP3      H1             13.2306194676      -31.1893948050       -6.1094499678  W2        552             0.0000000000
      1656       552  TIP3      H2             14.4732894676      -31.4650448050       -5.2898999678  W2        552             0.0000000000
      1657       553  TIP3      OH2             3.4857594676      -24.8463548050      -13.2104999678  W2        553             0.0000000000
      1658       553  TIP3      H1              4.0779094676      -24.1468748050      -12.9342599678  W2        553             0.0000000000
      1659       553  TIP3      H2              3.9450594676      -25.2794048050      -13.9300399678  W2        553             0.0000000000
      1660       554  TIP3      OH2             1.8016794676      -32.1820548050      -14.0945599678  W2        554             0.0000000000
      1661       554  TIP3      H1              1.7569394676      -31.2427448050      -13.9158599678  W2        554             0.0000000000
      1662       554  TIP3      H2              0.9139994676      -32.4175648050      -14.3643499678  W2        554             0.0000000000
      1663       555  TIP3      OH2            15.1146394676      -21.5181648050       -4.1585999678  W2        555             0.0000000000
      1664       555  TIP3      H1             14.9590694676      -20.8397248050       -4.8156699678  W2        555             0.0000000000
      1665       555  TIP3      H2             16.0472794676      -21.4462348050       -3.9555399678  W2        555             0.0000000000
      1666       556  TIP3      OH2             2.6098794676      -37.4003948050       -5.4214599678  W2        556             0.0000000000
      1667       556  TIP3      H1              2.3808594676      -37.3411448050       -6.3489599678  W2        556             0.0000000000
      1668       556  TIP3      H2              2.1672194676      -38.1918448050       -5.1150499678  W2        556             0.0000000000
      1669       557  TIP3      OH2             1.5402094676      -23.4596848050       -9.2608799678  W2        557             0.0000000000
      1670       557  TIP3      H1              0.7080694676      -22.9874148050       -9.2337399678  W2        557             0.0000000000
      1671       557  TIP3      H2              2.0860394676      -22.9499248050       -9.8595699678  W2        557             0.0000000000
      1672       558  TIP3      OH2             0.8285794676      -20.8473148050        2.0689200322  W2        558             0.0000000000
      1673       558  TIP3      H1              1.3687994676      -21.0639148050        2.8288400322  W2        558             0.0000000000
      1674       558  TIP3      H2              0.3473794676      -21.6527148050        1.8791700322  W2        558             0.0000000000
      1675       559  TIP3      OH2             5.4259194676      -21.9278748050        3.6893400322  W2        559             0.0000000000
      1676       559  TIP3      H1              6.1936394676      -22.3867948050        4.0302600322  W2        559             0.0000000000
      1677       559  TIP3      H2              5.4045394676      -22.1538948050        2.7594600322  W2        559             0.0000000000
      1678       560  TIP3      OH2             9.5178794676      -22.4198148050      -14.9354799678  W2        560             0.0000000000
      1679       560  TIP3      H1              8.8739794676      -23.0509548050      -14.6141099678  W2        560             0.0000000000
      1680       560  TIP3      H2             10.2797094676      -22.9510148050      -15.1671299678  W2        560             0.0000000000
      1681       561  TIP3      OH2            12.0027894676      -23.5477648050        2.4184900322  W2        561             0.0000000000
      1682       561  TIP3      H1             11.6517394676      -24.4044648050        2.6615300322  W2        561             0.0000000000
      1683       561  TIP3      H2             12.7291094676      -23.4050948050        3.0253900322  W2        561             0.0000000000
      1684       562  TIP3      OH2            14.1221694676      -22.6028248050      -14.7016799678  W2        562             0.0000000000
      1685       562  TIP3      H1             14.4052094676      -23.3973048050      -14.2489899678  W2        562             0.0000000000
      1686       562  TIP3      H2             14.8619594676      -22.3697248050      -15.2625699678  W2        562             0.0000000000
      1687       563  TIP3      OH2             0.7355294676      -27.0369048050        3.0233500322  W2        563             0.0000000000
      1688       563  TIP3      H1              0.8795794676      -27.9388348050        2.7370200322  W2        563             0.0000000000
      1689       563  TIP3      H2             -0.0367305324      -26.7506948050        2.5355800322  W2        563             0.0000000000
      1690       564  TIP3      OH2             5.0768994676      -26.6933348050      -14.8441899678  W2        564             0.0000000000
      1691       564  TIP3      H1              5.1413094676      -27.4873748050      -14.3135499678  W2        564             0.0000000000
      1692       564  TIP3      H2              5.7298194676      -26.8120548050      -15.5339899678  W2        564             0.0000000000
      1693       565  TIP3      OH2             7.3911394676      -27.0670948050        2.4559900322  W2        565             0.0000000000
      1694       565  TIP3      H1              7.0625194676      -26.7962848050        1.5987300322  W2        565             0.0000000000
      1695       565  TIP3      H2              7.5429594676      -28.0081148050        2.3684900322  W2        565             0.0000000000
      1696       566  TIP3      OH2            10.4292394676      -25.6461648050      -15.1083899678  W2        566             0.0000000000
      1697       566  TIP3      H1             10.1606494676      -25.4659548050      -14.2074999678  W2        566             0.0000000000
      1698       566  TIP3      H2             10.2227994676      -26.5715448050      -15.2398099678  W2        566             0.0000000000
      1699       567  TIP3      OH2            13.1256594676      -27.1513648050       -0.1607799678  W2        567             0.0000000000
      1700       567  TIP3      H1             13.8711394676      -26.5629948050       -0.2803799678  W2        567             0.0000000000
      1701       567  TIP3      H2             12.3683394676      -26.5693948050       -0.0974699678  W2        567             0.0000000000
      1702       568  TIP3      OH2             1.5681794676      -29.8365748050        2.4432800322  W2        568             0.0000000000
      1703       568  TIP3      H1              1.9762994676      -30.6939148050        2.3223400322  W2        568             0.0000000000
      1704       568  TIP3      H2              1.3079394676      -29.8224448050        3.3643100322  W2        568             0.0000000000
      1705       569  TIP3      OH2             6.2262794676      -28.7207148050      -12.5383899678  W2        569             0.0000000000
      1706       569  TIP3      H1              5.7664794676      -29.2048848050      -11.8525399678  W2        569             0.0000000000
      1707       569  TIP3      H2              6.4811494676      -29.3891748050      -13.1743399678  W2        569             0.0000000000
      1708       570  TIP3      OH2             5.5152094676      -30.8280048050       -0.1824299678  W2        570             0.0000000000
      1709       570  TIP3      H1              4.8968194676      -30.1533448050        0.0980400322  W2        570             0.0000000000
      1710       570  TIP3      H2              5.8593294676      -30.5066148050       -1.0158099678  W2        570             0.0000000000
      1711       571  TIP3      OH2             7.2973194676      -30.4775348050      -14.2760699678  W2        571             0.0000000000
      1712       571  TIP3      H1              7.1168194676      -30.6324148050      -15.2032399678  W2        571             0.0000000000
      1713       571  TIP3      H2              8.2473694676      -30.3696648050      -14.2312799678  W2        571             0.0000000000
      1714       572  TIP3      OH2            10.5350294676      -28.3564748050        3.0950500322  W2        572             0.0000000000
      1715       572  TIP3      H1             11.4881494676      -28.2725648050        3.0676500322  W2        572             0.0000000000
      1716       572  TIP3      H2             10.3744894676      -29.0682948050        3.7145400322  W2        572             0.0000000000
      1717       573  TIP3      OH2            16.6871494676      -28.1231148050      -14.8302599678  W2        573             0.0000000000
      1718       573  TIP3      H1             16.4136294676      -28.5475648050      -15.6434299678  W2        573             0.0000000000
      1719       573  TIP3      H2             16.7265594676      -27.1916648050      -15.0472199678  W2        573             0.0000000000
      1720       574  TIP3      OH2             5.8545794676      -33.4729248050        0.8998800322  W2        574             0.0000000000
      1721       574  TIP3      H1              6.0046694676      -34.2017948050        0.2978500322  W2        574             0.0000000000
      1722       574  TIP3      H2              5.8568194676      -32.6957548050        0.3411000322  W2        574             0.0000000000
      1723       575  TIP3      OH2             6.2671494676      -35.1033448050       -1.6073799678  W2        575             0.0000000000
      1724       575  TIP3      H1              6.8028994676      -34.6516748050       -2.2594499678  W2        575             0.0000000000
      1725       575  TIP3      H2              5.4151094676      -35.2113648050       -2.0299699678  W2        575             0.0000000000
      1726       576  TIP3      OH2             7.8489894676      -29.6637248050       -1.3678599678  W2        576             0.0000000000
      1727       576  TIP3      H1              8.5994694676      -29.8199748050       -1.9410799678  W2        576             0.0000000000
      1728       576  TIP3      H2              7.5098194676      -28.8120648050       -1.6433099678  W2        576             0.0000000000
      1729       577  TIP3      OH2            12.2646094676      -31.8485448050        3.6606700322  W2        577             0.0000000000
      1730       577  TIP3      H1             12.4567394676      -32.7796048050        3.5491200322  W2        577             0.0000000000
      1731       577  TIP3      H2             13.1222394676      -31.4235948050        3.6502100322  W2        577             0.0000000000
      1732       578  TIP3      OH2            13.5813294676      -29.0600248050        1.7379400322  W2        578             0.0000000000
      1733       578  TIP3      H1             13.2998294676      -28.3505648050        1.1603200322  W2        578             0.0000000000
      1734       578  TIP3      H2             14.5237594676      -29.1327248050        1.5870600322  W2        578             0.0000000000
      1735       579  TIP3      OH2             4.3332094676      -32.2745748050        2.8114400322  W2        579             0.0000000000
      1736       579  TIP3      H1              3.5661094676      -32.8070948050        2.6012000322  W2        579             0.0000000000
      1737       579  TIP3      H2              5.0121094676      -32.5845348050        2.2120700322  W2        579             0.0000000000
      1738       580  TIP3      OH2             7.0726994676      -37.6467748050       -1.1760199678  W2        580             0.0000000000
      1739       580  TIP3      H1              6.9746594676      -36.7004548050       -1.2813999678  W2        580             0.0000000000
      1740       580  TIP3      H2              6.3303194676      -38.0193948050       -1.6516699678  W2        580             0.0000000000
      1741       581  TIP3      OH2             8.3367494676      -33.3252348050        2.3878200322  W2        581             0.0000000000
      1742       581  TIP3      H1              8.1012894676      -33.5445648050        3.2893100322  W2        581             0.0000000000
      1743       581  TIP3      H2              7.5534394676      -33.5321148050        1.8780700322  W2        581             0.0000000000
      1744       582  TIP3      OH2            11.0524094676      -34.1978848050        1.4631700322  W2        582             0.0000000000
      1745       582  TIP3      H1             10.1049494676      -34.1659148050        1.5955000322  W2        582             0.0000000000
      1746       582  TIP3      H2             11.3650794676      -34.8231748050        2.1169900322  W2        582             0.0000000000
      1747       583  TIP3      OH2            12.6865594676      -35.5637748050        3.4683600322  W2        583             0.0000000000
      1748       583  TIP3      H1             12.5897394676      -36.5160448050        3.4625500322  W2        583             0.0000000000
      1749       583  TIP3      H2             12.3648694676      -35.2950948050        4.3289100322  W2        583             0.0000000000
      1750       584  TIP3      OH2             2.5134894676      -34.3541948050        2.5159100322  W2        584             0.0000000000
      1751       584  TIP3      H1              2.7252294676      -35.0605848050        1.9056600322  W2        584             0.0000000000
      1752       584  TIP3      H2              2.4022394676      -34.7915948050        3.3600300322  W2        584             0.0000000000
      1753       585  TIP3      OH2             7.2945094676      -38.3530348050        1.4952600322  W2        585             0.0000000000
      1754       585  TIP3      H1              8.0063494676      -38.9928148050        1.4811700322  W2        585             0.0000000000
      1755       585  TIP3      H2              7.1935494676      -38.0862048050        0.5815700322  W2        585             0.0000000000
      1756       586  TIP3      OH2             7.6482594676      -36.6701948050        3.5488900322  W2        586             0.0000000000
      1757       586  TIP3      H1              7.5164794676      -37.1458148050        2.7287400322  W2        586             0.0000000000
      1758       586  TIP3      H2              7.0489994676      -35.9258348050        3.4936000322  W2        586             0.0000000000
      1759       587  TIP3      OH2             7.1944894676      -19.7871648050      -13.2747099678  W2        587             0.0000000000
      1760       587  TIP3      H1              8.1275594676      -19.6292948050      -13.1308699678  W2        587             0.0000000000
      1761       587  TIP3      H2              6.9303694676      -19.1118648050      -13.8995599678  W2        587             0.0000000000
      1762       588  TIP3      OH2             0.7629794676      -25.1507848050      -13.7918999678  W2        588             0.0000000000
      1763       588  TIP3      H1              1.6768994676      -25.0718948050      -13.5185099678  W2        588             0.0000000000
      1764       588  TIP3      H2              0.7702894676      -25.8378248050      -14.4583399678  W2        588             0.0000000000
      1765       589  TIP3      OH2            -0.5879605324      -19.7579348050       -8.7145099678  W2        589             0.0000000000
      1766       589  TIP3      H1             -1.2352505324      -20.2197648050       -9.2473899678  W2        589             0.0000000000
      1767       589  TIP3      H2             -0.2335005324      -20.4296048050       -8.1318899678  W2        589             0.0000000000
      1768       590  TIP3      OH2             0.2819594676      -21.6772348050       -6.9098899678  W2        590             0.0000000000
      1769       590  TIP3      H1             -0.0523605324      -22.5575048050       -6.7378699678  W2        590             0.0000000000
      1770       590  TIP3      H2              0.5041994676      -21.3317348050       -6.0453299678  W2        590             0.0000000000
      1771       591  TIP3      OH2            17.8304394676      -20.8675948050       -3.9294099678  W2        591             0.0000000000
      1772       591  TIP3      H1             17.8091094676      -20.6827548050       -2.9904699678  W2        591             0.0000000000
      1773       591  TIP3      H2             18.5210594676      -20.2991948050       -4.2702699678  W2        591             0.0000000000
      1774       592  TIP3      OH2            17.3937294676      -21.3004848050       -1.0074999678  W2        592             0.0000000000
      1775       592  TIP3      H1             16.9065994676      -22.0360748050       -1.3787599678  W2        592             0.0000000000
      1776       592  TIP3      H2             17.9429994676      -21.6940948050       -0.3295599678  W2        592             0.0000000000
      1777       593  TIP3      OH2            15.8444594676      -25.5106748050        3.6305300322  W2        593             0.0000000000
      1778       593  TIP3      H1             14.9785694676      -25.6157048050        4.0247600322  W2        593             0.0000000000
      1779       593  TIP3      H2             16.2210494676      -24.7523448050        4.0770000322  W2        593             0.0000000000
      1780       594  TIP3      OH2            17.1454294676      -27.2543048050      -10.8552199678  W2        594             0.0000000000
      1781       594  TIP3      H1             17.9955694676      -26.8332148050      -10.7280599678  W2        594             0.0000000000
      1782       594  TIP3      H2             17.1509394676      -27.9942948050      -10.2480799678  W2        594             0.0000000000
      1783       595  TIP3      OH2            17.5399894676      -29.2005648050       -9.0316499678  W2        595             0.0000000000
      1784       595  TIP3      H1             16.8134494676      -29.6803048050       -8.6338899678  W2        595             0.0000000000
      1785       595  TIP3      H2             18.1213194676      -28.9950948050       -8.2994899678  W2        595             0.0000000000
      1786       596  TIP3      OH2            17.2991094676      -26.4158148050       -4.0838899678  W2        596             0.0000000000
      1787       596  TIP3      H1             18.1325294676      -26.7938148050       -4.3645299678  W2        596             0.0000000000
      1788       596  TIP3      H2             17.4111394676      -25.4726948050       -4.2029799678  W2        596             0.0000000000
      1789       597  TIP3      OH2            15.7853394676      -23.5380648050       -1.7770499678  W2        597             0.0000000000
      1790       597  TIP3      H1             15.1378694676      -23.2129148050       -1.1515299678  W2        597             0.0000000000
      1791       597  TIP3      H2             15.2677394676      -23.9782948050       -2.4512199678  W2        597             0.0000000000
      1792       598  TIP3      OH2            17.8082994676      -29.2997148050      -12.6405199678  W2        598             0.0000000000
      1793       598  TIP3      H1             17.2864094676      -28.9433048050      -13.3594299678  W2        598             0.0000000000
      1794       598  TIP3      H2             17.7752194676      -28.6249348050      -11.9624299678  W2        598             0.0000000000
      1795       599  TIP3      OH2            16.1571994676      -32.0601548050      -14.0898099678  W2        599             0.0000000000
      1796       599  TIP3      H1             16.2536394676      -31.3934548050      -14.7698399678  W2        599             0.0000000000
      1797       599  TIP3      H2             16.0171594676      -32.8755248050      -14.5712599678  W2        599             0.0000000000
      1798       600  TIP3      OH2            15.3266694676      -30.6799148050       -8.4687799678  W2        600             0.0000000000
      1799       600  TIP3      H1             15.1765494676      -31.6250548050       -8.4889999678  W2        600             0.0000000000
      1800       600  TIP3      H2             14.9731194676      -30.3987748050       -7.6248699678  W2        600             0.0000000000
      1801       601  TIP3      OH2             0.3619094676      -28.6016948050       -4.4583999678  W2        601             0.0000000000
      1802       601  TIP3      H1              0.5461994676      -28.6835248050       -5.3941099678  W2        601             0.0000000000
      1803       601  TIP3      H2              1.2111994676      -28.7259948050       -4.0347599678  W2        601             0.0000000000
      1804       602  TIP3      OH2            16.1829594676      -28.7095848050        1.1700500322  W2        602             0.0000000000
      1805       602  TIP3      H1             16.7656894676      -29.4443548050        1.3617700322  W2        602             0.0000000000
      1806       602  TIP3      H2             16.7468894676      -27.9375548050        1.2166300322  W2        602             0.0000000000
      1807       603  TIP3      OH2            17.6796694676      -30.8070048050        1.8545900322  W2        603             0.0000000000
      1808       603  TIP3      H1             16.8163394676      -31.1857948050        1.6890600322  W2        603             0.0000000000
      1809       603  TIP3      H2             18.2840394676      -31.5455248050        1.7801700322  W2        603             0.0000000000
      1810       604  TIP3      OH2            15.4045794676      -34.6521748050      -14.9722599678  W2        604             0.0000000000
      1811       604  TIP3      H1             16.0151594676      -35.0234948050      -14.3354399678  W2        604             0.0000000000
      1812       604  TIP3      H2             14.5677294676      -35.0734848050      -14.7762599678  W2        604             0.0000000000
      1813       605  TIP3      OH2            15.0371494676      -33.0973348050      -10.0062699678  W2        605             0.0000000000
      1814       605  TIP3      H1             15.3168594676      -34.0042948050       -9.8820999678  W2        605             0.0000000000
      1815       605  TIP3      H2             15.7963194676      -32.6631848050      -10.3953499678  W2        605             0.0000000000
      1816       606  TIP3      OH2            15.6489794676      -32.5155948050       -4.5703799678  W2        606             0.0000000000
      1817       606  TIP3      H1             16.5817794676      -32.3036048050       -4.6047799678  W2        606             0.0000000000
      1818       606  TIP3      H2             15.4137294676      -32.4143848050       -3.6480799678  W2        606             0.0000000000
      1819       607  TIP3      OH2            15.6781694676      -31.7790648050       -1.7944399678  W2        607             0.0000000000
      1820       607  TIP3      H1             14.8352994676      -31.5110248050       -1.4284599678  W2        607             0.0000000000
      1821       607  TIP3      H2             16.1205994676      -30.9568748050       -2.0053299678  W2        607             0.0000000000
      1822       608  TIP3      OH2            -0.0406105324      -33.3311948050        1.6824800322  W2        608             0.0000000000
      1823       608  TIP3      H1              0.8788794676      -33.4533648050        1.9187900322  W2        608             0.0000000000
      1824       608  TIP3      H2             -0.4901605324      -34.0812248050        2.0718300322  W2        608             0.0000000000
      1825       609  TIP3      OH2            17.9613294676      -37.7990448050        3.5590600322  W2        609             0.0000000000
      1826       609  TIP3      H1             18.3110294676      -38.4526948050        2.9535300322  W2        609             0.0000000000
      1827       609  TIP3      H2             18.1082794676      -36.9616348050        3.1193200322  W2        609             0.0000000000
      1828       610  TIP3      OH2            15.6506294676      -35.8344048050       -9.9580699678  W2        610             0.0000000000
      1829       610  TIP3      H1             15.8331294676      -36.2832548050       -9.1325699678  W2        610             0.0000000000
      1830       610  TIP3      H2             15.0509194676      -36.4189648050      -10.4216099678  W2        610             0.0000000000
      1831       611  TIP3      OH2             1.1806394676      -35.0190348050       -5.4262299678  W2        611             0.0000000000
      1832       611  TIP3      H1              1.6257994676      -35.8107848050       -5.1242599678  W2        611             0.0000000000
      1833       611  TIP3      H2              1.6469394676      -34.3025148050       -4.9956699678  W2        611             0.0000000000
      1834       612  TIP3      OH2            -0.5153305324      -32.0197348050       -4.3572099678  W2        612             0.0000000000
      1835       612  TIP3      H1             -0.0233505324      -32.2406848050       -5.1480099678  W2        612             0.0000000000
      1836       612  TIP3      H2             -0.1532405324      -31.1793948050       -4.0762599678  W2        612             0.0000000000
      1837       613  TIP3      OH2            17.4810494676      -35.6895848050        1.9081900322  W2        613             0.0000000000
      1838       613  TIP3      H1             16.5636194676      -35.4188748050        1.8725400322  W2        613             0.0000000000
      1839       613  TIP3      H2             17.6039894676      -36.2247448050        1.1241600322  W2        613             0.0000000000
      1840       614  TIP3      OH2            17.5172494676      -35.7665948050      -13.4300399678  W2        614             0.0000000000
      1841       614  TIP3      H1             17.9295094676      -36.4880248050      -13.9052399678  W2        614             0.0000000000
      1842       614  TIP3      H2             18.1988994676      -35.0971348050      -13.3716099678  W2        614             0.0000000000
      1843       615  TIP3      OH2            -0.2016805324      -35.7618248050      -10.3029699678  W2        615             0.0000000000
      1844       615  TIP3      H1             -1.1268405324      -35.5531648050      -10.4324199678  W2        615             0.0000000000
      1845       615  TIP3      H2              0.2523094676      -35.2777448050      -10.9927399678  W2        615             0.0000000000
      1846       616  TIP3      OH2            14.5690394676      -20.7776548050       -8.3572299678  W2        616             0.0000000000
      1847       616  TIP3      H1             15.2213294676      -21.1254448050       -8.9653199678  W2        616             0.0000000000
      1848       616  TIP3      H2             15.0794194676      -20.2893348050       -7.7112599678  W2        616             0.0000000000
      1849       617  TIP3      OH2            -0.2381405324      -37.0239248050       -1.9587199678  W2        617             0.0000000000
      1850       617  TIP3      H1             -0.9030905324      -37.2698948050       -1.3156299678  W2        617             0.0000000000
      1851       617  TIP3      H2             -0.6810105324      -36.4018848050       -2.5359199678  W2        617             0.0000000000
      1852       618  TIP3      OH2             1.9537894676      -23.8485148050        2.1858600322  W2        618             0.0000000000
      1853       618  TIP3      H1              1.1330394676      -23.6738648050        1.7253300322  W2        618             0.0000000000
      1854       618  TIP3      H2              1.7015694676      -23.9220448050        3.1063000322  W2        618             0.0000000000
      1855       619  TIP3      OH2             4.9080794676      -22.8743948050       -1.5557399678  W2        619             0.0000000000
      1856       619  TIP3      H1              4.4831894676      -22.0645448050       -1.8382799678  W2        619             0.0000000000
      1857       619  TIP3      H2              5.8123594676      -22.7889848050       -1.8577599678  W2        619             0.0000000000
      1858       620  TIP3      OH2             9.2192194676      -21.4753948050        1.4036300322  W2        620             0.0000000000
      1859       620  TIP3      H1              9.4039694676      -21.8087848050        2.2816600322  W2        620             0.0000000000
      1860       620  TIP3      H2             10.0656694676      -21.1655348050        1.0815500322  W2        620             0.0000000000
      1861       621  TIP3      OH2            11.5642594676      -20.1895048050        0.6477700322  W2        621             0.0000000000
      1862       621  TIP3      H1             12.2411494676      -20.8222748050        0.4076900322  W2        621             0.0000000000
      1863       621  TIP3      H2             11.8861394676      -19.7884548050        1.4551000322  W2        621             0.0000000000
      1864       622  TIP3      OH2            16.4816394676      -37.5999548050       -0.2727299678  W2        622             0.0000000000
      1865       622  TIP3      H1             15.6689894676      -37.2749248050       -0.6602599678  W2        622             0.0000000000
      1866       622  TIP3      H2             16.7144894676      -38.3601048050       -0.8058199678  W2        622             0.0000000000
      1867       623  TIP3      OH2             2.3097494676      -19.6180048050       -1.5082099678  W2        623             0.0000000000
      1868       623  TIP3      H1              1.5893894676      -19.1779048050       -1.9594399678  W2        623             0.0000000000
      1869       623  TIP3      H2              1.9441494676      -19.8685348050       -0.6598099678  W2        623             0.0000000000
      1870       624  TIP3      OH2             4.7770094676      -20.0176148050       -2.4784899678  W2        624             0.0000000000
      1871       624  TIP3      H1              3.9122294676      -19.9457648050       -2.0744799678  W2        624             0.0000000000
      1872       624  TIP3      H2              4.7219094676      -19.4708848050       -3.2622399678  W2        624             0.0000000000
      1873       625  TIP3      OH2             9.4875694676      -20.1297248050       -3.3028899678  W2        625             0.0000000000
      1874       625  TIP3      H1              9.0309694676      -19.6007548050       -3.9570499678  W2        625             0.0000000000
      1875       625  TIP3      H2              9.6503694676      -19.5265848050       -2.5776599678  W2        625             0.0000000000
      1876       626  TIP3      OH2            11.8151994676      -21.2517648050       -2.3578599678  W2        626             0.0000000000
      1877       626  TIP3      H1             10.9105694676      -21.0867448050       -2.6236499678  W2        626             0.0000000000
      1878       626  TIP3      H2             12.2440594676      -20.3985448050       -2.4235199678  W2        626             0.0000000000
      1879       627  TIP3      OH2            14.4193894676      -19.6818548050       -2.0630799678  W2        627             0.0000000000
      1880       627  TIP3      H1             14.2375894676      -18.7659648050       -2.2735899678  W2        627             0.0000000000
      1881       627  TIP3      H2             14.5961694676      -20.0921448050       -2.9096199678  W2        627             0.0000000000
      1882       628  TIP3      OH2             1.7245594676      -20.9947548050       -4.5980299678  W2        628             0.0000000000
      1883       628  TIP3      H1              1.7061594676      -21.4202448050       -3.7407999678  W2        628             0.0000000000
      1884       628  TIP3      H2              2.5293494676      -21.3132548050       -5.0068099678  W2        628             0.0000000000
      1885       629  TIP3      OH2             3.8658694676      -22.2848848050       -5.9430399678  W2        629             0.0000000000
      1886       629  TIP3      H1              3.6469394676      -23.2011448050       -5.7734399678  W2        629             0.0000000000
      1887       629  TIP3      H2              4.6900894676      -22.1448448050       -5.4768999678  W2        629             0.0000000000
      1888       630  TIP3      OH2             6.4031194676      -21.8149548050       -5.0942399678  W2        630             0.0000000000
      1889       630  TIP3      H1              6.6156894676      -22.7030548050       -5.3811499678  W2        630             0.0000000000
      1890       630  TIP3      H2              6.4676294676      -21.8491848050       -4.1398399678  W2        630             0.0000000000
      1891       631  TIP3      OH2             9.9114894676      -36.1508948050       -5.9499099678  W2        631             0.0000000000
      1892       631  TIP3      H1              9.2371694676      -36.7803348050       -5.6943299678  W2        631             0.0000000000
      1893       631  TIP3      H2             10.4754094676      -36.6350048050       -6.5531199678  W2        631             0.0000000000
      1894       632  TIP3      OH2            15.0542094676      -38.0434948050       -5.8371999678  W2        632             0.0000000000
      1895       632  TIP3      H1             15.6579694676      -37.4959548050       -6.3390999678  W2        632             0.0000000000
      1896       632  TIP3      H2             14.1844094676      -37.7244548050       -6.0777899678  W2        632             0.0000000000
      1897       633  TIP3      OH2            16.7812494676      -36.9046248050       -7.5041099678  W2        633             0.0000000000
      1898       633  TIP3      H1             17.3929994676      -37.4190548050       -8.0307499678  W2        633             0.0000000000
      1899       633  TIP3      H2             17.1635894676      -36.0274148050       -7.4806699678  W2        633             0.0000000000
      1900       634  TIP3      OH2             2.2382394676      -37.5168648050       -8.1279199678  W2        634             0.0000000000
      1901       634  TIP3      H1              1.4612194676      -37.7513748050       -8.6353299678  W2        634             0.0000000000
      1902       634  TIP3      H2              2.7685994676      -38.3136548050       -8.1191199678  W2        634             0.0000000000
      1903       635  TIP3      OH2             1.0745794676      -37.7190548050      -12.3243099678  W2        635             0.0000000000
      1904       635  TIP3      H1              1.5136494676      -37.1080048050      -12.9159599678  W2        635             0.0000000000
      1905       635  TIP3      H2              0.4408194676      -37.1806448050      -11.8503099678  W2        635             0.0000000000
      1906       636  TIP3      OH2             6.8174994676      -37.5901548050       -8.3146099678  W2        636             0.0000000000
      1907       636  TIP3      H1              7.6918394676      -37.2017248050       -8.3441799678  W2        636             0.0000000000
      1908       636  TIP3      H2              6.6815794676      -37.8053748050       -7.3918899678  W2        636             0.0000000000
      1909       637  TIP3      OH2            12.3743394676      -37.5601748050       -6.6654399678  W2        637             0.0000000000
      1910       637  TIP3      H1             12.4504994676      -37.4650148050       -7.6148399678  W2        637             0.0000000000
      1911       637  TIP3      H2             12.0992594676      -38.4678848050       -6.5365299678  W2        637             0.0000000000
      1912       638  TIP3      OH2            13.7275994676      -37.5343948050      -10.9729399678  W2        638             0.0000000000
      1913       638  TIP3      H1             13.0247094676      -36.9194748050      -11.1827999678  W2        638             0.0000000000
      1914       638  TIP3      H2             13.2827394676      -38.3717248050      -10.8418499678  W2        638             0.0000000000
      1915       639  TIP3      OH2             0.9755294676      -21.7708348050      -11.4267999678  W2        639             0.0000000000
      1916       639  TIP3      H1              0.2905194676      -21.8089448050      -12.0942899678  W2        639             0.0000000000
      1917       639  TIP3      H2              0.9792494676      -20.8580748050      -11.1385899678  W2        639             0.0000000000
      1918       640  TIP3      OH2             2.9354894676      -35.8029048050      -13.8818999678  W2        640             0.0000000000
      1919       640  TIP3      H1              3.4268294676      -36.4326648050      -14.4093499678  W2        640             0.0000000000
      1920       640  TIP3      H2              3.5591194676      -35.5069648050      -13.2187799678  W2        640             0.0000000000
      1921       641  TIP3      OH2             7.9614994676      -35.5097548050      -11.4248499678  W2        641             0.0000000000
      1922       641  TIP3      H1              8.1396294676      -36.1564348050      -10.7419899678  W2        641             0.0000000000
      1923       641  TIP3      H2              7.9081194676      -34.6759848050      -10.9577399678  W2        641             0.0000000000
      1924       642  TIP3      OH2             9.8398794676      -20.5613448050      -13.0291799678  W2        642             0.0000000000
      1925       642  TIP3      H1             10.7058994676      -20.1946048050      -13.2073599678  W2        642             0.0000000000
      1926       642  TIP3      H2              9.5931594676      -21.0005448050      -13.8430999678  W2        642             0.0000000000
      1927       643  TIP3      OH2            16.5488394676      -20.9983148050      -10.3500699678  W2        643             0.0000000000
      1928       643  TIP3      H1             16.3545494676      -21.7461048050      -10.9151099678  W2        643             0.0000000000
      1929       643  TIP3      H2             16.5098494676      -20.2403048050      -10.9332799678  W2        643             0.0000000000
      1930       644  TIP3      OH2             2.1960394676      -37.0026748050        1.3897000322  W2        644             0.0000000000
      1931       644  TIP3      H1              1.8298594676      -37.7684148050        1.8321700322  W2        644             0.0000000000
      1932       644  TIP3      H2              3.1088894676      -36.9736548050        1.6762100322  W2        644             0.0000000000
      1933       645  TIP3      OH2             4.1691194676      -37.6522348050        2.9254100322  W2        645             0.0000000000
      1934       645  TIP3      H1              5.0674794676      -37.9262148050        2.7407500322  W2        645             0.0000000000
      1935       645  TIP3      H2              3.7824294676      -38.3946348050        3.3896700322  W2        645             0.0000000000
      1936       646  TIP3      OH2             2.7936494676      -20.8507548050      -14.4015899678  W2        646             0.0000000000
      1937       646  TIP3      H1              2.5261094676      -20.5644648050      -13.5282799678  W2        646             0.0000000000
      1938       646  TIP3      H2              3.5649094676      -21.3968348050      -14.2493399678  W2        646             0.0000000000
      1939       647  TIP3      OH2            12.5903494676      -38.3197048050        3.1076900322  W2        647             0.0000000000
      1940       647  TIP3      H1             12.6670694676      -38.7456348050        3.9614600322  W2        647             0.0000000000
      1941       647  TIP3      H2             13.4840094676      -38.3062348050        2.7650400322  W2        647             0.0000000000
      1942       648  TIP3      OH2            15.7664594676      -22.2470748050        1.8001100322  W2        648             0.0000000000
      1943       648  TIP3      H1             14.9846494676      -22.4332748050        1.2801700322  W2        648             0.0000000000
      1944       648  TIP3      H2             15.6944494676      -21.3176448050        2.0173600322  W2        648             0.0000000000
      1945       649  TIP3      OH2            30.1724994676      -28.3606348050       -8.1691699678  W2        649             0.0000000000
      1946       649  TIP3      H1             30.2616094676      -27.4168148050       -8.3014599678  W2        649             0.0000000000
      1947       649  TIP3      H2             29.5342594676      -28.6359948050       -8.8272299678  W2        649             0.0000000000
      1948       650  TIP3      OH2            29.1056294676      -29.1055648050       -4.7503499678  W2        650             0.0000000000
      1949       650  TIP3      H1             29.0673794676      -29.7519348050       -4.0453899678  W2        650             0.0000000000
      1950       650  TIP3      H2             28.7832794676      -29.5721248050       -5.5214799678  W2        650             0.0000000000
      1951       651  TIP3      OH2            21.4741294676      -29.4913548050       -3.1573599678  W2        651             0.0000000000
      1952       651  TIP3      H1             21.5153394676      -30.1170248050       -2.4341199678  W2        651             0.0000000000
      1953       651  TIP3      H2             22.1768994676      -28.8674948050       -2.9753199678  W2        651             0.0000000000
      1954       652  TIP3      OH2            32.8116494676      -26.1665248050       -6.4488399678  W2        652             0.0000000000
      1955       652  TIP3      H1             32.3709194676      -26.8869248050       -5.9982799678  W2        652             0.0000000000
      1956       652  TIP3      H2             32.7986194676      -25.4458048050       -5.8190699678  W2        652             0.0000000000
      1957       653  TIP3      OH2            22.3974394676      -25.0414648050       -4.6224499678  W2        653             0.0000000000
      1958       653  TIP3      H1             22.0279594676      -25.8434148050       -4.9920199678  W2        653             0.0000000000
      1959       653  TIP3      H2             23.3385494676      -25.2099748050       -4.5761099678  W2        653             0.0000000000
      1960       654  TIP3      OH2            19.0074894676      -31.3812048050       -9.2295699678  W2        654             0.0000000000
      1961       654  TIP3      H1             18.5598294676      -30.5353348050       -9.2479199678  W2        654             0.0000000000
      1962       654  TIP3      H2             18.4466094676      -31.9607848050       -9.7450599678  W2        654             0.0000000000
      1963       655  TIP3      OH2            19.7180994676      -29.2192448050       -7.1037699678  W2        655             0.0000000000
      1964       655  TIP3      H1             19.9314494676      -29.9890848050       -6.5764699678  W2        655             0.0000000000
      1965       655  TIP3      H2             20.4558594676      -29.1295748050       -7.7070099678  W2        655             0.0000000000
      1966       656  TIP3      OH2            29.9231994676      -21.0623548050       -6.2367999678  W2        656             0.0000000000
      1967       656  TIP3      H1             30.5428394676      -21.7388848050       -6.5098799678  W2        656             0.0000000000
      1968       656  TIP3      H2             29.7149394676      -21.2802748050       -5.3283099678  W2        656             0.0000000000
      1969       657  TIP3      OH2            27.4950694676      -26.6734248050       -4.3442499678  W2        657             0.0000000000
      1970       657  TIP3      H1             27.7988594676      -27.3592848050       -4.9388399678  W2        657             0.0000000000
      1971       657  TIP3      H2             28.2164694676      -26.5545548050       -3.7264499678  W2        657             0.0000000000
      1972       658  TIP3      OH2            36.1580494676      -35.0718948050       -3.4836299678  W2        658             0.0000000000
      1973       658  TIP3      H1             36.2072694676      -34.4617748050       -2.7477199678  W2        658             0.0000000000
      1974       658  TIP3      H2             36.5835594676      -34.6108048050       -4.2065199678  W2        658             0.0000000000
      1975       659  TIP3      OH2            30.6357694676      -32.2791848050       -4.0167699678  W2        659             0.0000000000
      1976       659  TIP3      H1             30.7783594676      -33.2254848050       -3.9966099678  W2        659             0.0000000000
      1977       659  TIP3      H2             30.5296694676      -32.0722048050       -4.9452799678  W2        659             0.0000000000
      1978       660  TIP3      OH2            23.7905994676      -34.1775448050       -6.7442899678  W2        660             0.0000000000
      1979       660  TIP3      H1             23.8337094676      -33.3176948050       -7.1626599678  W2        660             0.0000000000
      1980       660  TIP3      H2             23.3330094676      -34.7300748050       -7.3779699678  W2        660             0.0000000000
      1981       661  TIP3      OH2            31.5128694676      -34.0469848050       -8.3434599678  W2        661             0.0000000000
      1982       661  TIP3      H1             32.1592994676      -34.3756648050       -7.7186999678  W2        661             0.0000000000
      1983       661  TIP3      H2             32.0228094676      -33.5290848050       -8.9663199678  W2        661             0.0000000000
      1984       662  TIP3      OH2            20.4107494676      -31.7809648050       -5.9821499678  W2        662             0.0000000000
      1985       662  TIP3      H1             21.0644094676      -32.3307948050       -5.5501399678  W2        662             0.0000000000
      1986       662  TIP3      H2             20.4346794676      -32.0550648050       -6.8989499678  W2        662             0.0000000000
      1987       663  TIP3      OH2            25.5671994676      -30.2308348050       -6.7669999678  W2        663             0.0000000000
      1988       663  TIP3      H1             26.1832994676      -30.7572948050       -6.2575999678  W2        663             0.0000000000
      1989       663  TIP3      H2             24.9810794676      -30.8709648050       -7.1706399678  W2        663             0.0000000000
      1990       664  TIP3      OH2            36.5495094676      -33.5939748050       -1.2476499678  W2        664             0.0000000000
      1991       664  TIP3      H1             35.8609694676      -32.9359048050       -1.3429899678  W2        664             0.0000000000
      1992       664  TIP3      H2             36.5649694676      -33.7911848050       -0.3111099678  W2        664             0.0000000000
      1993       665  TIP3      OH2            22.6007894676      -35.2597048050       -2.6702099678  W2        665             0.0000000000
      1994       665  TIP3      H1             22.3819594676      -34.7296448050       -3.4366099678  W2        665             0.0000000000
      1995       665  TIP3      H2             21.9328794676      -35.0331548050       -2.0230699678  W2        665             0.0000000000
      1996       666  TIP3      OH2            29.9697694676      -25.7595948050       -9.1262999678  W2        666             0.0000000000
      1997       666  TIP3      H1             29.6742794676      -26.0823648050       -9.9776099678  W2        666             0.0000000000
      1998       666  TIP3      H2             29.6455494676      -24.8599248050       -9.0850399678  W2        666             0.0000000000
      1999       667  TIP3      OH2            25.1699294676      -27.5841348050       -2.3828399678  W2        667             0.0000000000
      2000       667  TIP3      H1             24.4298394676      -26.9859848050       -2.2793199678  W2        667             0.0000000000
      2001       667  TIP3      H2             25.8838794676      -27.0301748050       -2.6984799678  W2        667             0.0000000000
      2002       668  TIP3      OH2            33.2767094676      -34.7560548050       -6.3628699678  W2        668             0.0000000000
      2003       668  TIP3      H1             33.0615094676      -35.5217148050       -5.8302699678  W2        668             0.0000000000
      2004       668  TIP3      H2             33.9324494676      -34.2835948050       -5.8500199678  W2        668             0.0000000000
      2005       669  TIP3      OH2            22.1945194676      -33.3675248050       -4.7179899678  W2        669             0.0000000000
      2006       669  TIP3      H1             22.8081494676      -32.7347648050       -4.3447499678  W2        669             0.0000000000
      2007       669  TIP3      H2             22.7065894676      -33.8400248050       -5.3742999678  W2        669             0.0000000000
      2008       670  TIP3      OH2            23.5773594676      -25.6198348050       -1.5956899678  W2        670             0.0000000000
      2009       670  TIP3      H1             23.5721194676      -24.7404848050       -1.9737599678  W2        670             0.0000000000
      2010       670  TIP3      H2             22.7237694676      -25.7034248050       -1.1706999678  W2        670             0.0000000000
      2011       671  TIP3      OH2            19.6984494676      -25.9490448050      -10.8137599678  W2        671             0.0000000000
      2012       671  TIP3      H1             19.4265394676      -25.7199448050      -11.7024699678  W2        671             0.0000000000
      2013       671  TIP3      H2             19.7440194676      -25.1111648050      -10.3532299678  W2        671             0.0000000000
      2014       672  TIP3      OH2            33.3234194676      -24.3274548050       -4.1009099678  W2        672             0.0000000000
      2015       672  TIP3      H1             32.3817894676      -24.2690648050       -3.9392199678  W2        672             0.0000000000
      2016       672  TIP3      H2             33.6000294676      -23.4214048050       -4.2379399678  W2        672             0.0000000000
      2017       673  TIP3      OH2            33.6241194676      -36.0409248050       -2.6835199678  W2        673             0.0000000000
      2018       673  TIP3      H1             32.8880394676      -35.4302148050       -2.7213899678  W2        673             0.0000000000
      2019       673  TIP3      H2             34.3075194676      -35.6260248050       -3.2098799678  W2        673             0.0000000000
      2020       674  TIP3      OH2            26.6272594676      -37.9541948050       -5.2177199678  W2        674             0.0000000000
      2021       674  TIP3      H1             26.5096794676      -38.9025948050       -5.2718899678  W2        674             0.0000000000
      2022       674  TIP3      H2             25.7722694676      -37.6215848050       -4.9446099678  W2        674             0.0000000000
      2023       675  TIP3      OH2            31.5755394676      -22.5461048050       -7.4757499678  W2        675             0.0000000000
      2024       675  TIP3      H1             32.0007694676      -23.2533148050       -7.9607899678  W2        675             0.0000000000
      2025       675  TIP3      H2             31.8925394676      -21.7448348050       -7.8925299678  W2        675             0.0000000000
      2026       676  TIP3      OH2            32.7351894676      -24.6452548050       -8.9670899678  W2        676             0.0000000000
      2027       676  TIP3      H1             32.4776694676      -25.3352448050       -9.5784999678  W2        676             0.0000000000
      2028       676  TIP3      H2             32.8062694676      -25.0881348050       -8.1214999678  W2        676             0.0000000000
      2029       677  TIP3      OH2            34.4212094676      -26.0785848050       -0.4897399678  W2        677             0.0000000000
      2030       677  TIP3      H1             34.5608394676      -26.6703348050       -1.2290399678  W2        677             0.0000000000
      2031       677  TIP3      H2             34.5884894676      -25.2059948050       -0.8458599678  W2        677             0.0000000000
      2032       678  TIP3      OH2            28.8937494676      -29.1166348050      -10.7171399678  W2        678             0.0000000000
      2033       678  TIP3      H1             28.1822994676      -28.5816648050      -11.0690899678  W2        678             0.0000000000
      2034       678  TIP3      H2             29.5847094676      -29.0614248050      -11.3772499678  W2        678             0.0000000000
      2035       679  TIP3      OH2            28.9476694676      -30.6592048050      -13.6786399678  W2        679             0.0000000000
      2036       679  TIP3      H1             29.6486594676      -30.6365148050      -13.0272399678  W2        679             0.0000000000
      2037       679  TIP3      H2             29.2499594676      -31.2872348050      -14.3347099678  W2        679             0.0000000000
      2038       680  TIP3      OH2            36.2631394676      -29.7387848050       -2.4236999678  W2        680             0.0000000000
      2039       680  TIP3      H1             35.6105494676      -29.0442248050       -2.3346099678  W2        680             0.0000000000
      2040       680  TIP3      H2             36.7281694676      -29.5286948050       -3.2335399678  W2        680             0.0000000000
      2041       681  TIP3      OH2            32.2995194676      -28.9073048050       -9.7655499678  W2        681             0.0000000000
      2042       681  TIP3      H1             31.5676194676      -28.6789348050       -9.1924899678  W2        681             0.0000000000
      2043       681  TIP3      H2             32.7467394676      -29.6210348050       -9.3107999678  W2        681             0.0000000000
      2044       682  TIP3      OH2            32.1968694676      -30.7330448050       -0.6978499678  W2        682             0.0000000000
      2045       682  TIP3      H1             32.2767794676      -29.9696048050       -0.1259999678  W2        682             0.0000000000
      2046       682  TIP3      H2             31.5956394676      -30.4538048050       -1.3883399678  W2        682             0.0000000000
      2047       683  TIP3      OH2            23.9448894676      -28.2766848050       -7.8830499678  W2        683             0.0000000000
      2048       683  TIP3      H1             23.6144094676      -28.6473448050       -8.7013499678  W2        683             0.0000000000
      2049       683  TIP3      H2             24.5332994676      -28.9472848050       -7.5362199678  W2        683             0.0000000000
      2050       684  TIP3      OH2            25.3116394676      -24.8486248050       -5.2018299678  W2        684             0.0000000000
      2051       684  TIP3      H1             25.2167694676      -25.4273148050       -5.9583699678  W2        684             0.0000000000
      2052       684  TIP3      H2             26.0409994676      -25.2200548050       -4.7055499678  W2        684             0.0000000000
      2053       685  TIP3      OH2            24.3114394676      -29.5081248050       -4.2495499678  W2        685             0.0000000000
      2054       685  TIP3      H1             24.8766894676      -29.3867048050       -5.0124299678  W2        685             0.0000000000
      2055       685  TIP3      H2             24.6303294676      -28.8706248050       -3.6106999678  W2        685             0.0000000000
      2056       686  TIP3      OH2            30.6206594676      -24.0049348050       -3.5154999678  W2        686             0.0000000000
      2057       686  TIP3      H1             30.3803194676      -23.3426248050       -2.8675799678  W2        686             0.0000000000
      2058       686  TIP3      H2             30.4224794676      -24.8394148050       -3.0905399678  W2        686             0.0000000000
      2059       687  TIP3      OH2            25.1915094676      -25.1088548050        0.4676400322  W2        687             0.0000000000
      2060       687  TIP3      H1             24.8802594676      -24.3265348050        0.9229600322  W2        687             0.0000000000
      2061       687  TIP3      H2             24.5415294676      -25.2619448050       -0.2181599678  W2        687             0.0000000000
      2062       688  TIP3      OH2            31.1704694676      -29.7450148050      -12.0804299678  W2        688             0.0000000000
      2063       688  TIP3      H1             31.7500194676      -29.5949848050      -11.3335399678  W2        688             0.0000000000
      2064       688  TIP3      H2             31.5844694676      -29.2742748050      -12.8037899678  W2        688             0.0000000000
      2065       689  TIP3      OH2            22.1114994676      -28.9107448050       -0.3037899678  W2        689             0.0000000000
      2066       689  TIP3      H1             22.1818194676      -28.2600648050        0.3947100322  W2        689             0.0000000000
      2067       689  TIP3      H2             21.2207194676      -28.8079948050       -0.6386999678  W2        689             0.0000000000
      2068       690  TIP3      OH2            28.8969594676      -23.0081648050       -8.6451199678  W2        690             0.0000000000
      2069       690  TIP3      H1             29.3707194676      -22.7125348050       -7.8676999678  W2        690             0.0000000000
      2070       690  TIP3      H2             28.3338894676      -22.2700048050       -8.8781599678  W2        690             0.0000000000
      2071       691  TIP3      OH2            23.4310994676      -23.0373548050        1.2310200322  W2        691             0.0000000000
      2072       691  TIP3      H1             23.4386294676      -23.1733848050        0.2835700322  W2        691             0.0000000000
      2073       691  TIP3      H2             22.5151394676      -23.1545448050        1.4830200322  W2        691             0.0000000000
      2074       692  TIP3      OH2            34.8693094676      -37.9949748050      -12.2674599678  W2        692             0.0000000000
      2075       692  TIP3      H1             33.9693794676      -37.8560748050      -11.9723999678  W2        692             0.0000000000
      2076       692  TIP3      H2             35.1211494676      -37.1635148050      -12.6692899678  W2        692             0.0000000000
      2077       693  TIP3      OH2            22.9351594676      -29.2072548050      -10.2937699678  W2        693             0.0000000000
      2078       693  TIP3      H1             22.6432894676      -28.4390848050      -10.7846399678  W2        693             0.0000000000
      2079       693  TIP3      H2             22.2606794676      -29.8666348050      -10.4566299678  W2        693             0.0000000000
      2080       694  TIP3      OH2            36.0584494676      -23.6287348050      -13.8910699678  W2        694             0.0000000000
      2081       694  TIP3      H1             36.1317994676      -22.6897148050      -13.7205399678  W2        694             0.0000000000
      2082       694  TIP3      H2             36.9639594676      -23.9338748050      -13.9473399678  W2        694             0.0000000000
      2083       695  TIP3      OH2            19.0281694676      -26.8443348050       -1.4787899678  W2        695             0.0000000000
      2084       695  TIP3      H1             18.5270094676      -26.8723948050       -2.2938199678  W2        695             0.0000000000
      2085       695  TIP3      H2             19.0335394676      -27.7500148050       -1.1690599678  W2        695             0.0000000000
      2086       696  TIP3      OH2            18.7784394676      -24.0639548050       -4.5947699678  W2        696             0.0000000000
      2087       696  TIP3      H1             19.7244994676      -24.2082548050       -4.6138199678  W2        696             0.0000000000
      2088       696  TIP3      H2             18.6660694676      -23.2796748050       -4.0576499678  W2        696             0.0000000000
      2089       697  TIP3      OH2            36.9762894676      -23.3979848050        1.0876000322  W2        697             0.0000000000
      2090       697  TIP3      H1             36.9269694676      -24.3531748050        1.0503600322  W2        697             0.0000000000
      2091       697  TIP3      H2             36.1495194676      -23.1304548050        1.4889800322  W2        697             0.0000000000
      2092       698  TIP3      OH2            27.9546894676      -23.8240648050       -0.0362599678  W2        698             0.0000000000
      2093       698  TIP3      H1             28.0421494676      -22.9976048050        0.4386500322  W2        698             0.0000000000
      2094       698  TIP3      H2             27.0911994676      -24.1536848050        0.2126700322  W2        698             0.0000000000
      2095       699  TIP3      OH2            28.3692694676      -20.0516948050      -10.2301999678  W2        699             0.0000000000
      2096       699  TIP3      H1             28.2938694676      -20.1729748050      -11.1766799678  W2        699             0.0000000000
      2097       699  TIP3      H2             28.4021394676      -19.1024248050      -10.1117399678  W2        699             0.0000000000
      2098       700  TIP3      OH2            22.0226494676      -21.2629948050       -8.4492999678  W2        700             0.0000000000
      2099       700  TIP3      H1             22.1746894676      -21.6109548050       -7.5706499678  W2        700             0.0000000000
      2100       700  TIP3      H2             21.1716894676      -21.6192648050       -8.7045799678  W2        700             0.0000000000
      2101       701  TIP3      OH2            31.4708694676      -20.8976748050      -13.2279599678  W2        701             0.0000000000
      2102       701  TIP3      H1             31.8457094676      -21.6420648050      -13.6986999678  W2        701             0.0000000000
      2103       701  TIP3      H2             31.4752394676      -21.1676148050      -12.3096299678  W2        701             0.0000000000
      2104       702  TIP3      OH2            31.1396794676      -20.9719648050      -10.4787399678  W2        702             0.0000000000
      2105       702  TIP3      H1             30.2046594676      -20.8717748050      -10.3000399678  W2        702             0.0000000000
      2106       702  TIP3      H2             31.4198694676      -21.6813648050       -9.9004199678  W2        702             0.0000000000
      2107       703  TIP3      OH2            34.1282694676      -31.9047348050        1.5678200322  W2        703             0.0000000000
      2108       703  TIP3      H1             33.7209494676      -31.4241748050        0.8471500322  W2        703             0.0000000000
      2109       703  TIP3      H2             34.1688394676      -32.8101348050        1.2599000322  W2        703             0.0000000000
      2110       704  TIP3      OH2            21.2772194676      -25.5207948050       -0.4355099678  W2        704             0.0000000000
      2111       704  TIP3      H1             21.4933494676      -25.8822348050        0.4240700322  W2        704             0.0000000000
      2112       704  TIP3      H2             20.4216894676      -25.8954148050       -0.6451599678  W2        704             0.0000000000
      2113       705  TIP3      OH2            23.8960194676      -37.0507448050       -4.4400899678  W2        705             0.0000000000
      2114       705  TIP3      H1             23.0343894676      -37.1379248050       -4.8477999678  W2        705             0.0000000000
      2115       705  TIP3      H2             23.8735894676      -36.1947348050       -4.0123299678  W2        705             0.0000000000
      2116       706  TIP3      OH2            28.5587994676      -37.3287048050       -1.0653899678  W2        706             0.0000000000
      2117       706  TIP3      H1             28.9791094676      -37.7439948050       -0.3123299678  W2        706             0.0000000000
      2118       706  TIP3      H2             27.6257594676      -37.5073748050       -0.9481899678  W2        706             0.0000000000
      2119       707  TIP3      OH2            31.8852894676      -33.5731848050       -0.2119399678  W2        707             0.0000000000
      2120       707  TIP3      H1             31.3712394676      -33.6989648050        0.5856600322  W2        707             0.0000000000
      2121       707  TIP3      H2             31.7297594676      -32.6608748050       -0.4563199678  W2        707             0.0000000000
      2122       708  TIP3      OH2            32.6477794676      -28.7121848050      -14.4506399678  W2        708             0.0000000000
      2123       708  TIP3      H1             32.6898594676      -28.9347948050      -15.3806399678  W2        708             0.0000000000
      2124       708  TIP3      H2             33.4969894676      -28.3134748050      -14.2606499678  W2        708             0.0000000000
      2125       709  TIP3      OH2            28.2205294676      -34.8363648050      -13.7803099678  W2        709             0.0000000000
      2126       709  TIP3      H1             27.9670094676      -34.8172048050      -12.8574999678  W2        709             0.0000000000
      2127       709  TIP3      H2             27.9637394676      -35.7078248050      -14.0816899678  W2        709             0.0000000000
      2128       710  TIP3      OH2            23.9870294676      -32.0852948050       -3.3450699678  W2        710             0.0000000000
      2129       710  TIP3      H1             23.3452394676      -32.1255648050       -2.6360599678  W2        710             0.0000000000
      2130       710  TIP3      H2             24.0242294676      -31.1588248050       -3.5827699678  W2        710             0.0000000000
      2131       711  TIP3      OH2            23.9839394676      -31.8642848050       -8.4330699678  W2        711             0.0000000000
      2132       711  TIP3      H1             23.0912294676      -32.2046748050       -8.4916899678  W2        711             0.0000000000
      2133       711  TIP3      H2             24.4345994676      -32.2411948050       -9.1887499678  W2        711             0.0000000000
      2134       712  TIP3      OH2            29.5194894676      -31.4482548050       -9.6159899678  W2        712             0.0000000000
      2135       712  TIP3      H1             29.1105194676      -30.6333948050       -9.9075099678  W2        712             0.0000000000
      2136       712  TIP3      H2             30.2401094676      -31.5882448050      -10.2302799678  W2        712             0.0000000000
      2137       713  TIP3      OH2            28.6216494676      -31.2726148050        1.8720800322  W2        713             0.0000000000
      2138       713  TIP3      H1             28.0590294676      -31.9774548050        2.1928600322  W2        713             0.0000000000
      2139       713  TIP3      H2             29.4479894676      -31.3934248050        2.3398400322  W2        713             0.0000000000
      2140       714  TIP3      OH2            30.5242594676      -32.0022148050       -6.8020199678  W2        714             0.0000000000
      2141       714  TIP3      H1             30.3287094676      -31.3965348050       -7.5169599678  W2        714             0.0000000000
      2142       714  TIP3      H2             30.7055194676      -32.8356948050       -7.2363899678  W2        714             0.0000000000
      2143       715  TIP3      OH2            21.7370794676      -31.7649448050       -1.4778699678  W2        715             0.0000000000
      2144       715  TIP3      H1             21.6990194676      -31.3647848050       -0.6091599678  W2        715             0.0000000000
      2145       715  TIP3      H2             21.2461894676      -32.5817048050       -1.3875799678  W2        715             0.0000000000
      2146       716  TIP3      OH2            25.1028194676      -34.3907148050      -14.6792699678  W2        716             0.0000000000
      2147       716  TIP3      H1             24.6718894676      -34.8357048050      -13.9495299678  W2        716             0.0000000000
      2148       716  TIP3      H2             24.3846894676      -34.0190848050      -15.1915199678  W2        716             0.0000000000
      2149       717  TIP3      OH2            18.3451594676      -34.6487648050       -7.6273999678  W2        717             0.0000000000
      2150       717  TIP3      H1             18.9759294676      -34.6775548050       -6.9080099678  W2        717             0.0000000000
      2151       717  TIP3      H2             18.7945894676      -35.0738948050       -8.3578099678  W2        717             0.0000000000
      2152       718  TIP3      OH2            19.6193694676      -33.9025648050      -12.2033599678  W2        718             0.0000000000
      2153       718  TIP3      H1             20.0935394676      -33.3115748050      -12.7882699678  W2        718             0.0000000000
      2154       718  TIP3      H2             18.9020094676      -33.3722748050      -11.8563499678  W2        718             0.0000000000
      2155       719  TIP3      OH2            29.7881794676      -30.3640848050       -2.1307799678  W2        719             0.0000000000
      2156       719  TIP3      H1             30.1116594676      -30.9951148050       -2.7737299678  W2        719             0.0000000000
      2157       719  TIP3      H2             29.3481094676      -30.8988648050       -1.4700399678  W2        719             0.0000000000
      2158       720  TIP3      OH2            26.5654694676      -34.4365348050       -7.3466599678  W2        720             0.0000000000
      2159       720  TIP3      H1             25.6545794676      -34.3798548050       -7.0580599678  W2        720             0.0000000000
      2160       720  TIP3      H2             27.0707594676      -34.4969848050       -6.5359399678  W2        720             0.0000000000
      2161       721  TIP3      OH2            21.3938094676      -32.8079048050       -8.5198999678  W2        721             0.0000000000
      2162       721  TIP3      H1             20.5046094676      -32.7083548050       -8.8599399678  W2        721             0.0000000000
      2163       721  TIP3      H2             21.6902994676      -33.6496048050       -8.8661099678  W2        721             0.0000000000
      2164       722  TIP3      OH2            25.0469894676      -32.8076448050      -10.8634399678  W2        722             0.0000000000
      2165       722  TIP3      H1             25.9785394676      -32.6786448050      -10.6851299678  W2        722             0.0000000000
      2166       722  TIP3      H2             24.8320194676      -32.1382148050      -11.5129699678  W2        722             0.0000000000
      2167       723  TIP3      OH2            30.9706594676      -35.2019048050       -4.0824799678  W2        723             0.0000000000
      2168       723  TIP3      H1             30.2938194676      -35.0705948050       -3.4185099678  W2        723             0.0000000000
      2169       723  TIP3      H2             30.4851494676      -35.3569548050       -4.8927099678  W2        723             0.0000000000
      2170       724  TIP3      OH2            23.7210094676      -31.6134248050      -13.2968299678  W2        724             0.0000000000
      2171       724  TIP3      H1             23.1785194676      -31.9930448050      -13.9880699678  W2        724             0.0000000000
      2172       724  TIP3      H2             24.5544994676      -31.4189548050      -13.7254199678  W2        724             0.0000000000
      2173       725  TIP3      OH2            34.2581694676      -19.5303648050        2.1942800322  W2        725             0.0000000000
      2174       725  TIP3      H1             34.4580394676      -19.1061748050        1.3598100322  W2        725             0.0000000000
      2175       725  TIP3      H2             34.9135394676      -19.1865448050        2.8013200322  W2        725             0.0000000000
      2176       726  TIP3      OH2            21.8561494676      -27.0562348050        1.8023300322  W2        726             0.0000000000
      2177       726  TIP3      H1             22.5883894676      -26.8016448050        2.3637800322  W2        726             0.0000000000
      2178       726  TIP3      H2             21.0760194676      -26.8516948050        2.3178700322  W2        726             0.0000000000
      2179       727  TIP3      OH2            27.8854394676      -31.6492348050       -5.4596999678  W2        727             0.0000000000
      2180       727  TIP3      H1             28.4497794676      -32.1955748050       -6.0067399678  W2        727             0.0000000000
      2181       727  TIP3      H2             27.7377794676      -32.1710448050       -4.6709399678  W2        727             0.0000000000
      2182       728  TIP3      OH2            22.8874094676      -35.5126248050       -9.0412199678  W2        728             0.0000000000
      2183       728  TIP3      H1             22.5703594676      -36.4150948050       -9.0766799678  W2        728             0.0000000000
      2184       728  TIP3      H2             23.6688194676      -35.5108848050       -9.5940599678  W2        728             0.0000000000
      2185       729  TIP3      OH2            26.5120294676      -33.2606248050       -3.0456599678  W2        729             0.0000000000
      2186       729  TIP3      H1             25.6765594676      -32.8066748050       -2.9354199678  W2        729             0.0000000000
      2187       729  TIP3      H2             27.0360894676      -32.9847748050       -2.2936699678  W2        729             0.0000000000
      2188       730  TIP3      OH2            27.0562894676      -27.0478548050      -11.3610199678  W2        730             0.0000000000
      2189       730  TIP3      H1             26.3113894676      -27.5553248050      -11.6832299678  W2        730             0.0000000000
      2190       730  TIP3      H2             26.9220094676      -26.9990548050      -10.4145399678  W2        730             0.0000000000
      2191       731  TIP3      OH2            34.2061794676      -27.9150348050       -2.5742599678  W2        731             0.0000000000
      2192       731  TIP3      H1             34.8480594676      -27.4584048050       -3.1180399678  W2        731             0.0000000000
      2193       731  TIP3      H2             33.3758694676      -27.8017948050       -3.0368499678  W2        731             0.0000000000
      2194       732  TIP3      OH2            30.9539694676      -34.2338648050      -13.1617599678  W2        732             0.0000000000
      2195       732  TIP3      H1             30.0153894676      -34.1223048050      -13.3128799678  W2        732             0.0000000000
      2196       732  TIP3      H2             31.2511794676      -33.3771748050      -12.8551899678  W2        732             0.0000000000
      2197       733  TIP3      OH2            28.5754994676      -26.8635248050       -0.1241099678  W2        733             0.0000000000
      2198       733  TIP3      H1             28.2301094676      -27.2452848050        0.6828500322  W2        733             0.0000000000
      2199       733  TIP3      H2             28.3755094676      -25.9301648050       -0.0528199678  W2        733             0.0000000000
      2200       734  TIP3      OH2            31.6723194676      -32.3665948050      -11.5010199678  W2        734             0.0000000000
      2201       734  TIP3      H1             32.5642194676      -32.5040948050      -11.1818999678  W2        734             0.0000000000
      2202       734  TIP3      H2             31.7286794676      -31.5759848050      -12.0376699678  W2        734             0.0000000000
      2203       735  TIP3      OH2            22.1811194676      -27.7528548050       -5.5912299678  W2        735             0.0000000000
      2204       735  TIP3      H1             22.9258394676      -27.7552848050       -6.1925799678  W2        735             0.0000000000
      2205       735  TIP3      H2             22.2587794676      -28.5764748050       -5.1097199678  W2        735             0.0000000000
      2206       736  TIP3      OH2            29.1816994676      -25.5894248050      -12.3355599678  W2        736             0.0000000000
      2207       736  TIP3      H1             28.8865394676      -24.7626348050      -11.9540799678  W2        736             0.0000000000
      2208       736  TIP3      H2             28.4786994676      -26.2087348050      -12.1394199678  W2        736             0.0000000000
      2209       737  TIP3      OH2            19.1890894676      -29.2921648050       -0.2763799678  W2        737             0.0000000000
      2210       737  TIP3      H1             19.4119494676      -29.7102048050        0.5553700322  W2        737             0.0000000000
      2211       737  TIP3      H2             18.5870994676      -29.9046648050       -0.6990999678  W2        737             0.0000000000
      2212       738  TIP3      OH2            26.2055794676      -29.7751748050        1.9365900322  W2        738             0.0000000000
      2213       738  TIP3      H1             25.9096594676      -29.9408748050        1.0415000322  W2        738             0.0000000000
      2214       738  TIP3      H2             27.1370994676      -29.9951448050        1.9259800322  W2        738             0.0000000000
      2215       739  TIP3      OH2            30.8258594676      -24.4019748050       -0.1736099678  W2        739             0.0000000000
      2216       739  TIP3      H1             29.9252894676      -24.2187148050       -0.4412199678  W2        739             0.0000000000
      2217       739  TIP3      H2             30.8599694676      -24.1430448050        0.7472700322  W2        739             0.0000000000
      2218       740  TIP3      OH2            36.5571894676      -32.1571848050      -11.8063499678  W2        740             0.0000000000
      2219       740  TIP3      H1             36.0028194676      -32.5533848050      -12.4785999678  W2        740             0.0000000000
      2220       740  TIP3      H2             36.6575494676      -31.2466648050      -12.0840199678  W2        740             0.0000000000
      2221       741  TIP3      OH2            36.5203894676      -26.3570148050        1.0308000322  W2        741             0.0000000000
      2222       741  TIP3      H1             35.6692394676      -26.1186348050        0.6634400322  W2        741             0.0000000000
      2223       741  TIP3      H2             37.1107294676      -26.3736948050        0.2775100322  W2        741             0.0000000000
      2224       742  TIP3      OH2            34.8523594676      -23.3711448050      -11.3411399678  W2        742             0.0000000000
      2225       742  TIP3      H1             34.4794694676      -24.1967648050      -11.0320799678  W2        742             0.0000000000
      2226       742  TIP3      H2             35.1297094676      -23.5542048050      -12.2387999678  W2        742             0.0000000000
      2227       743  TIP3      OH2            32.0127494676      -28.5631948050       -4.3199499678  W2        743             0.0000000000
      2228       743  TIP3      H1             31.0844394676      -28.7950048050       -4.3470199678  W2        743             0.0000000000
      2229       743  TIP3      H2             32.4638594676      -29.3402148050       -4.6500699678  W2        743             0.0000000000
      2230       744  TIP3      OH2            24.5560594676      -24.2350348050       -8.1870799678  W2        744             0.0000000000
      2231       744  TIP3      H1             25.0832794676      -23.4615948050       -8.3871999678  W2        744             0.0000000000
      2232       744  TIP3      H2             23.6759094676      -24.0101148050       -8.4886799678  W2        744             0.0000000000
      2233       745  TIP3      OH2            20.3108294676      -29.3726248050      -13.5998399678  W2        745             0.0000000000
      2234       745  TIP3      H1             20.9268194676      -28.7459048050      -13.2203599678  W2        745             0.0000000000
      2235       745  TIP3      H2             19.4490894676      -29.0566448050      -13.3281899678  W2        745             0.0000000000
      2236       746  TIP3      OH2            25.9832894676      -26.5720448050       -8.6106499678  W2        746             0.0000000000
      2237       746  TIP3      H1             25.7422894676      -25.6466048050       -8.5691199678  W2        746             0.0000000000
      2238       746  TIP3      H2             25.2426494676      -27.0309148050       -8.2142599678  W2        746             0.0000000000
      2239       747  TIP3      OH2            26.4979494676      -22.4226848050       -2.2955399678  W2        747             0.0000000000
      2240       747  TIP3      H1             26.8604194676      -21.5681248050       -2.5290999678  W2        747             0.0000000000
      2241       747  TIP3      H2             27.0294694676      -22.7145248050       -1.5549099678  W2        747             0.0000000000
      2242       748  TIP3      OH2            24.6663694676      -21.5502848050       -9.0654299678  W2        748             0.0000000000
      2243       748  TIP3      H1             23.7164194676      -21.4445448050       -9.0140999678  W2        748             0.0000000000
      2244       748  TIP3      H2             25.0181794676      -20.7295448050       -8.7206799678  W2        748             0.0000000000
      2245       749  TIP3      OH2            30.0420294676      -26.3236148050       -2.5949799678  W2        749             0.0000000000
      2246       749  TIP3      H1             29.6161594676      -26.5514448050       -1.7685799678  W2        749             0.0000000000
      2247       749  TIP3      H2             30.6226094676      -27.0624348050       -2.7774499678  W2        749             0.0000000000
      2248       750  TIP3      OH2            32.2449194676      -25.3945648050      -13.5210799678  W2        750             0.0000000000
      2249       750  TIP3      H1             32.5982294676      -25.7745848050      -12.7167299678  W2        750             0.0000000000
      2250       750  TIP3      H2             31.2962694676      -25.4880848050      -13.4341499678  W2        750             0.0000000000
      2251       751  TIP3      OH2            32.7004494676      -21.7716648050       -0.1254999678  W2        751             0.0000000000
      2252       751  TIP3      H1             32.0987694676      -22.3273748050       -0.6208699678  W2        751             0.0000000000
      2253       751  TIP3      H2             32.9818194676      -21.1046848050       -0.7517599678  W2        751             0.0000000000
      2254       752  TIP3      OH2            36.7483594676      -20.9153148050      -13.3200599678  W2        752             0.0000000000
      2255       752  TIP3      H1             37.4921494676      -20.3292648050      -13.4598999678  W2        752             0.0000000000
      2256       752  TIP3      H2             36.0541694676      -20.3467348050      -12.9868199678  W2        752             0.0000000000
      2257       753  TIP3      OH2            20.8230394676      -34.5388948050       -0.7182399678  W2        753             0.0000000000
      2258       753  TIP3      H1             19.9302694676      -34.2003548050       -0.7858399678  W2        753             0.0000000000
      2259       753  TIP3      H2             20.7243194676      -35.3942848050       -0.3001599678  W2        753             0.0000000000
      2260       754  TIP3      OH2            33.1108494676      -26.7223648050      -11.2942899678  W2        754             0.0000000000
      2261       754  TIP3      H1             32.8336094676      -27.4504348050      -10.7381799678  W2        754             0.0000000000
      2262       754  TIP3      H2             34.0381494676      -26.6031648050      -11.0890299678  W2        754             0.0000000000
      2263       755  TIP3      OH2            20.4742394676      -22.7344548050       -2.2832999678  W2        755             0.0000000000
      2264       755  TIP3      H1             20.6912694676      -23.6662148050       -2.3143299678  W2        755             0.0000000000
      2265       755  TIP3      H2             20.7205894676      -22.4599548050       -1.4000199678  W2        755             0.0000000000
      2266       756  TIP3      OH2            26.3356994676      -24.2829548050      -15.0740799678  W2        756             0.0000000000
      2267       756  TIP3      H1             26.5746794676      -25.0311448050      -15.6211899678  W2        756             0.0000000000
      2268       756  TIP3      H2             26.0668294676      -24.6707848050      -14.2412999678  W2        756             0.0000000000
      2269       757  TIP3      OH2            25.2727594676      -24.7125748050      -12.6178199678  W2        757             0.0000000000
      2270       757  TIP3      H1             25.4195594676      -25.2325948050      -11.8277299678  W2        757             0.0000000000
      2271       757  TIP3      H2             25.2699294676      -23.8058148050      -12.3112299678  W2        757             0.0000000000
      2272       758  TIP3      OH2            21.7258694676      -27.4602448050      -12.1072799678  W2        758             0.0000000000
      2273       758  TIP3      H1             21.0397994676      -27.1079948050      -11.5403099678  W2        758             0.0000000000
      2274       758  TIP3      H2             22.2486594676      -26.6972848050      -12.3538499678  W2        758             0.0000000000
      2275       759  TIP3      OH2            29.5573794676      -34.7978648050       -1.8283799678  W2        759             0.0000000000
      2276       759  TIP3      H1             30.2561694676      -34.7239948050       -1.1784099678  W2        759             0.0000000000
      2277       759  TIP3      H2             29.1765194676      -35.6623648050       -1.6740899678  W2        759             0.0000000000
      2278       760  TIP3      OH2            30.3418694676      -35.1456948050      -10.7311499678  W2        760             0.0000000000
      2279       760  TIP3      H1             30.5616994676      -34.6741548050      -11.5346099678  W2        760             0.0000000000
      2280       760  TIP3      H2             30.9002694676      -34.7514348050      -10.0610899678  W2        760             0.0000000000
      2281       761  TIP3      OH2            28.0104794676      -23.0152148050      -11.8683999678  W2        761             0.0000000000
      2282       761  TIP3      H1             27.1940894676      -22.5182448050      -11.8159699678  W2        761             0.0000000000
      2283       761  TIP3      H2             28.5401094676      -22.5398648050      -12.5085199678  W2        761             0.0000000000
      2284       762  TIP3      OH2            27.5418594676      -33.4178148050       -9.8963099678  W2        762             0.0000000000
      2285       762  TIP3      H1             28.3541194676      -32.9134948050       -9.8501399678  W2        762             0.0000000000
      2286       762  TIP3      H2             27.2971594676      -33.5628448050       -8.9823499678  W2        762             0.0000000000
      2287       763  TIP3      OH2            28.0774994676      -32.4315448050       -0.7116499678  W2        763             0.0000000000
      2288       763  TIP3      H1             28.1965294676      -31.8580048050        0.0453900322  W2        763             0.0000000000
      2289       763  TIP3      H2             28.7329594676      -33.1196048050       -0.5968699678  W2        763             0.0000000000
      2290       764  TIP3      OH2            28.4255294676      -36.3365148050       -8.9581999678  W2        764             0.0000000000
      2291       764  TIP3      H1             28.0788794676      -35.7194548050       -8.3137699678  W2        764             0.0000000000
      2292       764  TIP3      H2             29.0842194676      -35.8359448050       -9.4396499678  W2        764             0.0000000000
      2293       765  TIP3      OH2            25.3487894676      -21.9714948050      -11.8867099678  W2        765             0.0000000000
      2294       765  TIP3      H1             25.5096594676      -21.1717448050      -12.3874499678  W2        765             0.0000000000
      2295       765  TIP3      H2             25.1515694676      -21.6648948050      -11.0016499678  W2        765             0.0000000000
      2296       766  TIP3      OH2            24.0832294676      -35.2735748050      -12.2709499678  W2        766             0.0000000000
      2297       766  TIP3      H1             23.9997094676      -34.3852648050      -11.9243099678  W2        766             0.0000000000
      2298       766  TIP3      H2             24.9732594676      -35.5389048050      -12.0392699678  W2        766             0.0000000000
      2299       767  TIP3      OH2            34.2820794676      -34.5245148050        0.1233200322  W2        767             0.0000000000
      2300       767  TIP3      H1             33.3656594676      -34.2623448050        0.0356900322  W2        767             0.0000000000
      2301       767  TIP3      H2             34.6175794676      -34.5276148050       -0.7731499678  W2        767             0.0000000000
      2302       768  TIP3      OH2            32.8841794676      -30.7744148050       -5.7809499678  W2        768             0.0000000000
      2303       768  TIP3      H1             32.0866194676      -31.1893948050       -6.1094499678  W2        768             0.0000000000
      2304       768  TIP3      H2             33.3292894676      -31.4650448050       -5.2898999678  W2        768             0.0000000000
      2305       769  TIP3      OH2            22.3417594676      -24.8463548050      -13.2104999678  W2        769             0.0000000000
      2306       769  TIP3      H1             22.9339094676      -24.1468748050      -12.9342599678  W2        769             0.0000000000
      2307       769  TIP3      H2             22.8010594676      -25.2794048050      -13.9300399678  W2        769             0.0000000000
      2308       770  TIP3      OH2            20.6576794676      -32.1820548050      -14.0945599678  W2        770             0.0000000000
      2309       770  TIP3      H1             20.6129394676      -31.2427448050      -13.9158599678  W2        770             0.0000000000
      2310       770  TIP3      H2             19.7699994676      -32.4175648050      -14.3643499678  W2        770             0.0000000000
      2311       771  TIP3      OH2            33.9706394676      -21.5181648050       -4.1585999678  W2        771             0.0000000000
      2312       771  TIP3      H1             33.8150694676      -20.8397248050       -4.8156699678  W2        771             0.0000000000
      2313       771  TIP3      H2             34.9032794676      -21.4462348050       -3.9555399678  W2        771             0.0000000000
      2314       772  TIP3      OH2            21.4658794676      -37.4003948050       -5.4214599678  W2        772             0.0000000000
      2315       772  TIP3      H1             21.2368594676      -37.3411448050       -6.3489599678  W2        772             0.0000000000
      2316       772  TIP3      H2             21.0232194676      -38.1918448050       -5.1150499678  W2        772             0.0000000000
      2317       773  TIP3      OH2            20.3962094676      -23.4596848050       -9.2608799678  W2        773             0.0000000000
      2318       773  TIP3      H1             19.5640694676      -22.9874148050       -9.2337399678  W2        773             0.0000000000
      2319       773  TIP3      H2             20.9420394676      -22.9499248050       -9.8595699678  W2        773             0.0000000000
      2320       774  TIP3      OH2            19.6845794676      -20.8473148050        2.0689200322  W2        774             0.0000000000
      2321       774  TIP3      H1             20.2247994676      -21.0639148050        2.8288400322  W2        774             0.0000000000
      2322       774  TIP3      H2             19.2033794676      -21.6527148050        1.8791700322  W2        774             0.0000000000
      2323       775  TIP3      OH2            24.2819194676      -21.9278748050        3.6893400322  W2        775             0.0000000000
      2324       775  TIP3      H1             25.0496394676      -22.3867948050        4.0302600322  W2        775             0.0000000000
      2325       775  TIP3      H2             24.2605394676      -22.1538948050        2.7594600322  W2        775             0.0000000000
      2326       776  TIP3      OH2            28.3738794676      -22.4198148050      -14.9354799678  W2        776             0.0000000000
      2327       776  TIP3      H1             27.7299794676      -23.0509548050      -14.6141099678  W2        776             0.0000000000
      2328       776  TIP3      H2             29.1357094676      -22.9510148050      -15.1671299678  W2        776             0.0000000000
      2329       777  TIP3      OH2            30.8587894676      -23.5477648050        2.4184900322  W2        777             0.0000000000
      2330       777  TIP3      H1             30.5077394676      -24.4044648050        2.6615300322  W2        777             0.0000000000
      2331       777  TIP3      H2             31.5851094676      -23.4050948050        3.0253900322  W2        777             0.0000000000
      2332       778  TIP3      OH2            32.9781694676      -22.6028248050      -14.7016799678  W2        778             0.0000000000
      2333       778  TIP3      H1             33.2612094676      -23.3973048050      -14.2489899678  W2        778             0.0000000000
      2334       778  TIP3      H2             33.7179594676      -22.3697248050      -15.2625699678  W2        778             0.0000000000
      2335       779  TIP3      OH2            19.5915294676      -27.0369048050        3.0233500322  W2        779             0.0000000000
      2336       779  TIP3      H1             19.7355794676      -27.9388348050        2.7370200322  W2        779             0.0000000000
      2337       779  TIP3      H2             18.8192694676      -26.7506948050        2.5355800322  W2        779             0.0000000000
      2338       780  TIP3      OH2            23.9328994676      -26.6933348050      -14.8441899678  W2        780             0.0000000000
      2339       780  TIP3      H1             23.9973094676      -27.4873748050      -14.3135499678  W2        780             0.0000000000
      2340       780  TIP3      H2             24.5858194676      -26.8120548050      -15.5339899678  W2        780             0.0000000000
      2341       781  TIP3      OH2            26.2471394676      -27.0670948050        2.4559900322  W2        781             0.0000000000
      2342       781  TIP3      H1             25.9185194676      -26.7962848050        1.5987300322  W2        781             0.0000000000
      2343       781  TIP3      H2             26.3989594676      -28.0081148050        2.3684900322  W2        781             0.0000000000
      2344       782  TIP3      OH2            29.2852394676      -25.6461648050      -15.1083899678  W2        782             0.0000000000
      2345       782  TIP3      H1             29.0166494676      -25.4659548050      -14.2074999678  W2        782             0.0000000000
      2346       782  TIP3      H2             29.0787994676      -26.5715448050      -15.2398099678  W2        782             0.0000000000
      2347       783  TIP3      OH2            31.9816594676      -27.1513648050       -0.1607799678  W2        783             0.0000000000
      2348       783  TIP3      H1             32.7271394676      -26.5629948050       -0.2803799678  W2        783             0.0000000000
      2349       783  TIP3      H2             31.2243394676      -26.5693948050       -0.0974699678  W2        783             0.0000000000
      2350       784  TIP3      OH2            20.4241794676      -29.8365748050        2.4432800322  W2        784             0.0000000000
      2351       784  TIP3      H1             20.8322994676      -30.6939148050        2.3223400322  W2        784             0.0000000000
      2352       784  TIP3      H2             20.1639394676      -29.8224448050        3.3643100322  W2        784             0.0000000000
      2353       785  TIP3      OH2            25.0822794676      -28.7207148050      -12.5383899678  W2        785             0.0000000000
      2354       785  TIP3      H1             24.6224794676      -29.2048848050      -11.8525399678  W2        785             0.0000000000
      2355       785  TIP3      H2             25.3371494676      -29.3891748050      -13.1743399678  W2        785             0.0000000000
      2356       786  TIP3      OH2            24.3712094676      -30.8280048050       -0.1824299678  W2        786             0.0000000000
      2357       786  TIP3      H1             23.7528194676      -30.1533448050        0.0980400322  W2        786             0.0000000000
      2358       786  TIP3      H2             24.7153294676      -30.5066148050       -1.0158099678  W2        786             0.0000000000
      2359       787  TIP3      OH2            26.1533194676      -30.4775348050      -14.2760699678  W2        787             0.0000000000
      2360       787  TIP3      H1             25.9728194676      -30.6324148050      -15.2032399678  W2        787             0.0000000000
      2361       787  TIP3      H2             27.1033694676      -30.3696648050      -14.2312799678  W2        787             0.0000000000
      2362       788  TIP3      OH2            29.3910294676      -28.3564748050        3.0950500322  W2        788             0.0000000000
      2363       788  TIP3      H1             30.3441494676      -28.2725648050        3.0676500322  W2        788             0.0000000000
      2364       788  TIP3      H2             29.2304894676      -29.0682948050        3.7145400322  W2        788             0.0000000000
      2365       789  TIP3      OH2            35.5431494676      -28.1231148050      -14.8302599678  W2        789             0.0000000000
      2366       789  TIP3      H1             35.2696294676      -28.5475648050      -15.6434299678  W2        789             0.0000000000
      2367       789  TIP3      H2             35.5825594676      -27.1916648050      -15.0472199678  W2        789             0.0000000000
      2368       790  TIP3      OH2            24.7105794676      -33.4729248050        0.8998800322  W2        790             0.0000000000
      2369       790  TIP3      H1             24.8606694676      -34.2017948050        0.2978500322  W2        790             0.0000000000
      2370       790  TIP3      H2             24.7128194676      -32.6957548050        0.3411000322  W2        790             0.0000000000
      2371       791  TIP3      OH2            25.1231494676      -35.1033448050       -1.6073799678  W2        791             0.0000000000
      2372       791  TIP3      H1             25.6588994676      -34.6516748050       -2.2594499678  W2        791             0.0000000000
      2373       791  TIP3      H2             24.2711094676      -35.2113648050       -2.0299699678  W2        791             0.0000000000
      2374       792  TIP3      OH2            26.7049894676      -29.6637248050       -1.3678599678  W2        792             0.0000000000
      2375       792  TIP3      H1             27.4554694676      -29.8199748050       -1.9410799678  W2        792             0.0000000000
      2376       792  TIP3      H2             26.3658194676      -28.8120648050       -1.6433099678  W2        792             0.0000000000
      2377       793  TIP3      OH2            31.1206094676      -31.8485448050        3.6606700322  W2        793             0.0000000000
      2378       793  TIP3      H1             31.3127394676      -32.7796048050        3.5491200322  W2        793             0.0000000000
      2379       793  TIP3      H2             31.9782394676      -31.4235948050        3.6502100322  W2        793             0.0000000000
      2380       794  TIP3      OH2            32.4373294676      -29.0600248050        1.7379400322  W2        794             0.0000000000
      2381       794  TIP3      H1             32.1558294676      -28.3505648050        1.1603200322  W2        794             0.0000000000
      2382       794  TIP3      H2             33.3797594676      -29.1327248050        1.5870600322  W2        794             0.0000000000
      2383       795  TIP3      OH2            23.1892094676      -32.2745748050        2.8114400322  W2        795             0.0000000000
      2384       795  TIP3      H1             22.4221094676      -32.8070948050        2.6012000322  W2        795             0.0000000000
      2385       795  TIP3      H2             23.8681094676      -32.5845348050        2.2120700322  W2        795             0.0000000000
      2386       796  TIP3      OH2            25.9286994676      -37.6467748050       -1.1760199678  W2        796             0.0000000000
      2387       796  TIP3      H1             25.8306594676      -36.7004548050       -1.2813999678  W2        796             0.0000000000
      2388       796  TIP3      H2             25.1863194676      -38.0193948050       -1.6516699678  W2        796             0.0000000000
      2389       797  TIP3      OH2            27.1927494676      -33.3252348050        2.3878200322  W2        797             0.0000000000
      2390       797  TIP3      H1             26.9572894676      -33.5445648050        3.2893100322  W2        797             0.0000000000
      2391       797  TIP3      H2             26.4094394676      -33.5321148050        1.8780700322  W2        797             0.0000000000
      2392       798  TIP3      OH2            29.9084094676      -34.1978848050        1.4631700322  W2        798             0.0000000000
      2393       798  TIP3      H1             28.9609494676      -34.1659148050        1.5955000322  W2        798             0.0000000000
      2394       798  TIP3      H2             30.2210794676      -34.8231748050        2.1169900322  W2        798             0.0000000000
      2395       799  TIP3      OH2            31.5425594676      -35.5637748050        3.4683600322  W2        799             0.0000000000
      2396       799  TIP3      H1             31.4457394676      -36.5160448050        3.4625500322  W2        799             0.0000000000
      2397       799  TIP3      H2             31.2208694676      -35.2950948050        4.3289100322  W2        799             0.0000000000
      2398       800  TIP3      OH2            21.3694894676      -34.3541948050        2.5159100322  W2        800             0.0000000000
      2399       800  TIP3      H1             21.5812294676      -35.0605848050        1.9056600322  W2        800             0.0000000000
      2400       800  TIP3      H2             21.2582394676      -34.7915948050        3.3600300322  W2        800             0.0000000000
      2401       801  TIP3      OH2            26.1505094676      -38.3530348050        1.4952600322  W2        801             0.0000000000
      2402       801  TIP3      H1             26.8623494676      -38.9928148050        1.4811700322  W2        801             0.0000000000
      2403       801  TIP3      H2             26.0495494676      -38.0862048050        0.5815700322  W2        801             0.0000000000
      2404       802  TIP3      OH2            26.5042594676      -36.6701948050        3.5488900322  W2        802             0.0000000000
      2405       802  TIP3      H1             26.3724794676      -37.1458148050        2.7287400322  W2        802             0.0000000000
      2406       802  TIP3      H2             25.9049994676      -35.9258348050        3.4936000322  W2        802             0.0000000000
      2407       803  TIP3      OH2            26.0504894676      -19.7871648050      -13.2747099678  W2        803             0.0000000000
      2408       803  TIP3      H1             26.9835594676      -19.6292948050      -13.1308699678  W2        803             0.0000000000
      2409       803  TIP3      H2             25.7863694676      -19.1118648050      -13.8995599678  W2        803             0.0000000000
      2410       804  TIP3      OH2            19.6189794676      -25.1507848050      -13.7918999678  W2        804             0.0000000000
      2411       804  TIP3      H1             20.5328994676      -25.0718948050      -13.5185099678  W2        804             0.0000000000
      2412       804  TIP3      H2             19.6262894676      -25.8378248050      -14.4583399678  W2        804             0.0000000000
      2413       805  TIP3      OH2            18.2680394676      -19.7579348050       -8.7145099678  W2        805             0.0000000000
      2414       805  TIP3      H1             17.6207494676      -20.2197648050       -9.2473899678  W2        805             0.0000000000
      2415       805  TIP3      H2             18.6224994676      -20.4296048050       -8.1318899678  W2        805             0.0000000000
      2416       806  TIP3      OH2            19.1379594676      -21.6772348050       -6.9098899678  W2        806             0.0000000000
      2417       806  TIP3      H1             18.8036394676      -22.5575048050       -6.7378699678  W2        806             0.0000000000
      2418       806  TIP3      H2             19.3601994676      -21.3317348050       -6.0453299678  W2        806             0.0000000000
      2419       807  TIP3      OH2            36.6864394676      -20.8675948050       -3.9294099678  W2        807             0.0000000000
      2420       807  TIP3      H1             36.6651094676      -20.6827548050       -2.9904699678  W2        807             0.0000000000
      2421       807  TIP3      H2             37.3770594676      -20.2991948050       -4.2702699678  W2        807             0.0000000000
      2422       808  TIP3      OH2            36.2497294676      -21.3004848050       -1.0074999678  W2        808             0.0000000000
      2423       808  TIP3      H1             35.7625994676      -22.0360748050       -1.3787599678  W2        808             0.0000000000
      2424       808  TIP3      H2             36.7989994676      -21.6940948050       -0.3295599678  W2        808             0.0000000000
      2425       809  TIP3      OH2            34.7004594676      -25.5106748050        3.6305300322  W2        809             0.0000000000
      2426       809  TIP3      H1             33.8345694676      -25.6157048050        4.0247600322  W2        809             0.0000000000
      2427       809  TIP3      H2             35.0770494676      -24.7523448050        4.0770000322  W2        809             0.0000000000
      2428       810  TIP3      OH2            36.0014294676      -27.2543048050      -10.8552199678  W2        810             0.0000000000
      2429       810  TIP3      H1             36.8515694676      -26.8332148050      -10.7280599678  W2        810             0.0000000000
      2430       810  TIP3      H2             36.0069394676      -27.9942948050      -10.2480799678  W2        810             0.0000000000
      2431       811  TIP3      OH2            36.3959894676      -29.2005648050       -9.0316499678  W2        811             0.0000000000
      2432       811  TIP3      H1             35.6694494676      -29.6803048050       -8.6338899678  W2        811             0.0000000000
      2433       811  TIP3      H2             36.9773194676      -28.9950948050       -8.2994899678  W2        811             0.0000000000
      2434       812  TIP3      OH2            36.1551094676      -26.4158148050       -4.0838899678  W2        812             0.0000000000
      2435       812  TIP3      H1             36.9885294676      -26.7938148050       -4.3645299678  W2        812             0.0000000000
      2436       812  TIP3      H2             36.2671394676      -25.4726948050       -4.2029799678  W2        812             0.0000000000
      2437       813  TIP3      OH2            34.6413394676      -23.5380648050       -1.7770499678  W2        813             0.0000000000
      2438       813  TIP3      H1             33.9938694676      -23.2129148050       -1.1515299678  W2        813             0.0000000000
      2439       813  TIP3      H2             34.1237394676      -23.9782948050       -2.4512199678  W2        813             0.0000000000
      2440       814  TIP3      OH2            36.6642994676      -29.2997148050      -12.6405199678  W2        814             0.0000000000
      2441       814  TIP3      H1             36.1424094676      -28.9433048050      -13.3594299678  W2        814             0.0000000000
      2442       814  TIP3      H2             36.6312194676      -28.6249348050      -11.9624299678  W2        814             0.0000000000
      2443       815  TIP3      OH2            35.0131994676      -32.0601548050      -14.0898099678  W2        815             0.0000000000
      2444       815  TIP3      H1             35.1096394676      -31.3934548050      -14.7698399678  W2        815             0.0000000000
      2445       815  TIP3      H2             34.8731594676      -32.8755248050      -14.5712599678  W2        815             0.0000000000
      2446       816  TIP3      OH2            34.1826694676      -30.6799148050       -8.4687799678  W2        816             0.0000000000
      2447       816  TIP3      H1             34.0325494676      -31.6250548050       -8.4889999678  W2        816             0.0000000000
      2448       816  TIP3      H2             33.8291194676      -30.3987748050       -7.6248699678  W2        816             0.0000000000
      2449       817  TIP3      OH2            19.2179094676      -28.6016948050       -4.4583999678  W2        817             0.0000000000
      2450       817  TIP3      H1             19.4021994676      -28.6835248050       -5.3941099678  W2        817             0.0000000000
      2451       817  TIP3      H2             20.0671994676      -28.7259948050       -4.0347599678  W2        817             0.0000000000
      2452       818  TIP3      OH2            35.0389594676      -28.7095848050        1.1700500322  W2        818             0.0000000000
      2453       818  TIP3      H1             35.6216894676      -29.4443548050        1.3617700322  W2        818             0.0000000000
      2454       818  TIP3      H2             35.6028894676      -27.9375548050        1.2166300322  W2        818             0.0000000000
      2455       819  TIP3      OH2            36.5356694676      -30.8070048050        1.8545900322  W2        819             0.0000000000
      2456       819  TIP3      H1             35.6723394676      -31.1857948050        1.6890600322  W2        819             0.0000000000
      2457       819  TIP3      H2             37.1400394676      -31.5455248050        1.7801700322  W2        819             0.0000000000
      2458       820  TIP3      OH2            34.2605794676      -34.6521748050      -14.9722599678  W2        820             0.0000000000
      2459       820  TIP3      H1             34.8711594676      -35.0234948050      -14.3354399678  W2        820             0.0000000000
      2460       820  TIP3      H2             33.4237294676      -35.0734848050      -14.7762599678  W2        820             0.0000000000
      2461       821  TIP3      OH2            33.8931494676      -33.0973348050      -10.0062699678  W2        821             0.0000000000
      2462       821  TIP3      H1             34.1728594676      -34.0042948050       -9.8820999678  W2        821             0.0000000000
      2463       821  TIP3      H2             34.6523194676      -32.6631848050      -10.3953499678  W2        821             0.0000000000
      2464       822  TIP3      OH2            34.5049794676      -32.5155948050       -4.5703799678  W2        822             0.0000000000
      2465       822  TIP3      H1             35.4377794676      -32.3036048050       -4.6047799678  W2        822             0.0000000000
      2466       822  TIP3      H2             34.2697294676      -32.4143848050       -3.6480799678  W2        822             0.0000000000
      2467       823  TIP3      OH2            34.5341694676      -31.7790648050       -1.7944399678  W2        823             0.0000000000
      2468       823  TIP3      H1             33.6912994676      -31.5110248050       -1.4284599678  W2        823             0.0000000000
      2469       823  TIP3      H2             34.9765994676      -30.9568748050       -2.0053299678  W2        823             0.0000000000
      2470       824  TIP3      OH2            18.8153894676      -33.3311948050        1.6824800322  W2        824             0.0000000000
      2471       824  TIP3      H1             19.7348794676      -33.4533648050        1.9187900322  W2        824             0.0000000000
      2472       824  TIP3      H2             18.3658394676      -34.0812248050        2.0718300322  W2        824             0.0000000000
      2473       825  TIP3      OH2            36.8173294676      -37.7990448050        3.5590600322  W2        825             0.0000000000
      2474       825  TIP3      H1             37.1670294676      -38.4526948050        2.9535300322  W2        825             0.0000000000
      2475       825  TIP3      H2             36.9642794676      -36.9616348050        3.1193200322  W2        825             0.0000000000
      2476       826  TIP3      OH2            34.5066294676      -35.8344048050       -9.9580699678  W2        826             0.0000000000
      2477       826  TIP3      H1             34.6891294676      -36.2832548050       -9.1325699678  W2        826             0.0000000000
      2478       826  TIP3      H2             33.9069194676      -36.4189648050      -10.4216099678  W2        826             0.0000000000
      2479       827  TIP3      OH2            20.0366394676      -35.0190348050       -5.4262299678  W2        827             0.0000000000
      2480       827  TIP3      H1             20.4817994676      -35.8107848050       -5.1242599678  W2        827             0.0000000000
      2481       827  TIP3      H2             20.5029394676      -34.3025148050       -4.9956699678  W2        827             0.0000000000
      2482       828  TIP3      OH2            18.3406694676      -32.0197348050       -4.3572099678  W2        828             0.0000000000
      2483       828  TIP3      H1             18.8326494676      -32.2406848050       -5.1480099678  W2        828             0.0000000000
      2484       828  TIP3      H2             18.7027594676      -31.1793948050       -4.0762599678  W2        828             0.0000000000
      2485       829  TIP3      OH2            36.3370494676      -35.6895848050        1.9081900322  W2        829             0.0000000000
      2486       829  TIP3      H1             35.4196194676      -35.4188748050        1.8725400322  W2        829             0.0000000000
      2487       829  TIP3      H2             36.4599894676      -36.2247448050        1.1241600322  W2        829             0.0000000000
      2488       830  TIP3      OH2            36.3732494676      -35.7665948050      -13.4300399678  W2        830             0.0000000000
      2489       830  TIP3      H1             36.7855094676      -36.4880248050      -13.9052399678  W2        830             0.0000000000
      2490       830  TIP3      H2             37.0548994676      -35.0971348050      -13.3716099678  W2        830             0.0000000000
      2491       831  TIP3      OH2            18.6543194676      -35.7618248050      -10.3029699678  W2        831             0.0000000000
      2492       831  TIP3      H1             17.7291594676      -35.5531648050      -10.4324199678  W2        831             0.0000000000
      2493       831  TIP3      H2             19.1083094676      -35.2777448050      -10.9927399678  W2        831             0.0000000000
      2494       832  TIP3      OH2            33.4250394676      -20.7776548050       -8.3572299678  W2        832             0.0000000000
      2495       832  TIP3      H1             34.0773294676      -21.1254448050       -8.9653199678  W2        832             0.0000000000
      2496       832  TIP3      H2             33.9354194676      -20.2893348050       -7.7112599678  W2        832             0.0000000000
      2497       833  TIP3      OH2            18.6178594676      -37.0239248050       -1.9587199678  W2        833             0.0000000000
      2498       833  TIP3      H1             17.9529094676      -37.2698948050       -1.3156299678  W2        833             0.0000000000
      2499       833  TIP3      H2             18.1749894676      -36.4018848050       -2.5359199678  W2        833             0.0000000000
      2500       834  TIP3      OH2            20.8097894676      -23.8485148050        2.1858600322  W2        834             0.0000000000
      2501       834  TIP3      H1             19.9890394676      -23.6738648050        1.7253300322  W2        834             0.0000000000
      2502       834  TIP3      H2             20.5575694676      -23.9220448050        3.1063000322  W2        834             0.0000000000
      2503       835  TIP3      OH2            23.7640794676      -22.8743948050       -1.5557399678  W2        835             0.0000000000
      2504       835  TIP3      H1             23.3391894676      -22.0645448050       -1.8382799678  W2        835             0.0000000000
      2505       835  TIP3      H2             24.6683594676      -22.7889848050       -1.8577599678  W2        835             0.0000000000
      2506       836  TIP3      OH2            28.0752194676      -21.4753948050        1.4036300322  W2        836             0.0000000000
      2507       836  TIP3      H1             28.2599694676      -21.8087848050        2.2816600322  W2        836             0.0000000000
      2508       836  TIP3      H2             28.9216694676      -21.1655348050        1.0815500322  W2        836             0.0000000000
      2509       837  TIP3      OH2            30.4202594676      -20.1895048050        0.6477700322  W2        837             0.0000000000
      2510       837  TIP3      H1             31.0971494676      -20.8222748050        0.4076900322  W2        837             0.0000000000
      2511       837  TIP3      H2             30.7421394676      -19.7884548050        1.4551000322  W2        837             0.0000000000
      2512       838  TIP3      OH2            35.3376394676      -37.5999548050       -0.2727299678  W2        838             0.0000000000
      2513       838  TIP3      H1             34.5249894676      -37.2749248050       -0.6602599678  W2        838             0.0000000000
      2514       838  TIP3      H2             35.5704894676      -38.3601048050       -0.8058199678  W2        838             0.0000000000
      2515       839  TIP3      OH2            21.1657494676      -19.6180048050       -1.5082099678  W2        839             0.0000000000
      2516       839  TIP3      H1             20.4453894676      -19.1779048050       -1.9594399678  W2        839             0.0000000000
      2517       839  TIP3      H2             20.8001494676      -19.8685348050       -0.6598099678  W2        839             0.0000000000
      2518       840  TIP3      OH2            23.6330094676      -20.0176148050       -2.4784899678  W2        840             0.0000000000
      2519       840  TIP3      H1             22.7682294676      -19.9457648050       -2.0744799678  W2        840             0.0000000000
      2520       840  TIP3      H2             23.5779094676      -19.4708848050       -3.2622399678  W2        840             0.0000000000
      2521       841  TIP3      OH2            28.3435694676      -20.1297248050       -3.3028899678  W2        841             0.0000000000
      2522       841  TIP3      H1             27.8869694676      -19.6007548050       -3.9570499678  W2        841             0.0000000000
      2523       841  TIP3      H2             28.5063694676      -19.5265848050       -2.5776599678  W2        841             0.0000000000
      2524       842  TIP3      OH2            30.6711994676      -21.2517648050       -2.3578599678  W2        842             0.0000000000
      2525       842  TIP3      H1             29.7665694676      -21.0867448050       -2.6236499678  W2        842             0.0000000000
      2526       842  TIP3      H2             31.1000594676      -20.3985448050       -2.4235199678  W2        842             0.0000000000
      2527       843  TIP3      OH2            33.2753894676      -19.6818548050       -2.0630799678  W2        843             0.0000000000
      2528       843  TIP3      H1             33.0935894676      -18.7659648050       -2.2735899678  W2        843             0.0000000000
      2529       843  TIP3      H2             33.4521694676      -20.0921448050       -2.9096199678  W2        843             0.0000000000
      2530       844  TIP3      OH2            20.5805594676      -20.9947548050       -4.5980299678  W2        844             0.0000000000
      2531       844  TIP3      H1             20.5621594676      -21.4202448050       -3.7407999678  W2        844             0.0000000000
      2532       844  TIP3      H2             21.3853494676      -21.3132548050       -5.0068099678  W2        844             0.0000000000
      2533       845  TIP3      OH2            22.7218694676      -22.2848848050       -5.9430399678  W2        845             0.0000000000
      2534       845  TIP3      H1             22.5029394676      -23.2011448050       -5.7734399678  W2        845             0.0000000000
      2535       845  TIP3      H2             23.5460894676      -22.1448448050       -5.4768999678  W2        845             0.0000000000
      2536       846  TIP3      OH2            25.2591194676      -21.8149548050       -5.0942399678  W2        846             0.0000000000
      2537       846  TIP3      H1             25.4716894676      -22.7030548050       -5.3811499678  W2        846             0.0000000000
      2538       846  TIP3      H2             25.3236294676      -21.8491848050       -4.1398399678  W2        846             0.0000000000
      2539       847  TIP3      OH2            28.7674894676      -36.1508948050       -5.9499099678  W2        847             0.0000000000
      2540       847  TIP3      H1             28.0931694676      -36.7803348050       -5.6943299678  W2        847             0.0000000000
      2541       847  TIP3      H2             29.3314094676      -36.6350048050       -6.5531199678  W2        847             0.0000000000
      2542       848  TIP3      OH2            33.9102094676      -38.0434948050       -5.8371999678  W2        848             0.0000000000
      2543       848  TIP3      H1             34.5139694676      -37.4959548050       -6.3390999678  W2        848             0.0000000000
      2544       848  TIP3      H2             33.0404094676      -37.7244548050       -6.0777899678  W2        848             0.0000000000
      2545       849  TIP3      OH2            35.6372494676      -36.9046248050       -7.5041099678  W2        849             0.0000000000
      2546       849  TIP3      H1             36.2489994676      -37.4190548050       -8.0307499678  W2        849             0.0000000000
      2547       849  TIP3      H2             36.0195894676      -36.0274148050       -7.4806699678  W2        849             0.0000000000
      2548       850  TIP3      OH2            21.0942394676      -37.5168648050       -8.1279199678  W2        850             0.0000000000
      2549       850  TIP3      H1             20.3172194676      -37.7513748050       -8.6353299678  W2        850             0.0000000000
      2550       850  TIP3      H2             21.6245994676      -38.3136548050       -8.1191199678  W2        850             0.0000000000
      2551       851  TIP3      OH2            19.9305794676      -37.7190548050      -12.3243099678  W2        851             0.0000000000
      2552       851  TIP3      H1             20.3696494676      -37.1080048050      -12.9159599678  W2        851             0.0000000000
      2553       851  TIP3      H2             19.2968194676      -37.1806448050      -11.8503099678  W2        851             0.0000000000
      2554       852  TIP3      OH2            25.6734994676      -37.5901548050       -8.3146099678  W2        852             0.0000000000
      2555       852  TIP3      H1             26.5478394676      -37.2017248050       -8.3441799678  W2        852             0.0000000000
      2556       852  TIP3      H2             25.5375794676      -37.8053748050       -7.3918899678  W2        852             0.0000000000
      2557       853  TIP3      OH2            31.2303394676      -37.5601748050       -6.6654399678  W2        853             0.0000000000
      2558       853  TIP3      H1             31.3064994676      -37.4650148050       -7.6148399678  W2        853             0.0000000000
      2559       853  TIP3      H2             30.9552594676      -38.4678848050       -6.5365299678  W2        853             0.0000000000
      2560       854  TIP3      OH2            32.5835994676      -37.5343948050      -10.9729399678  W2        854             0.0000000000
      2561       854  TIP3      H1             31.8807094676      -36.9194748050      -11.1827999678  W2        854             0.0000000000
      2562       854  TIP3      H2             32.1387394676      -38.3717248050      -10.8418499678  W2        854             0.0000000000
      2563       855  TIP3      OH2            19.8315294676      -21.7708348050      -11.4267999678  W2        855             0.0000000000
      2564       855  TIP3      H1             19.1465194676      -21.8089448050      -12.0942899678  W2        855             0.0000000000
      2565       855  TIP3      H2             19.8352494676      -20.8580748050      -11.1385899678  W2        855             0.0000000000
      2566       856  TIP3      OH2            21.7914894676      -35.8029048050      -13.8818999678  W2        856             0.0000000000
      2567       856  TIP3      H1             22.2828294676      -36.4326648050      -14.4093499678  W2        856             0.0000000000
      2568       856  TIP3      H2             22.4151194676      -35.5069648050      -13.2187799678  W2        856             0.0000000000
      2569       857  TIP3      OH2            26.8174994676      -35.5097548050      -11.4248499678  W2        857             0.0000000000
      2570       857  TIP3      H1             26.9956294676      -36.1564348050      -10.7419899678  W2        857             0.0000000000
      2571       857  TIP3      H2             26.7641194676      -34.6759848050      -10.9577399678  W2        857             0.0000000000
      2572       858  TIP3      OH2            28.6958794676      -20.5613448050      -13.0291799678  W2        858             0.0000000000
      2573       858  TIP3      H1             29.5618994676      -20.1946048050      -13.2073599678  W2        858             0.0000000000
      2574       858  TIP3      H2             28.4491594676      -21.0005448050      -13.8430999678  W2        858             0.0000000000
      2575       859  TIP3      OH2            35.4048394676      -20.9983148050      -10.3500699678  W2        859             0.0000000000
      2576       859  TIP3      H1             35.2105494676      -21.7461048050      -10.9151099678  W2        859             0.0000000000
      2577       859  TIP3      H2             35.3658494676      -20.2403048050      -10.9332799678  W2        859             0.0000000000
      2578       860  TIP3      OH2            21.0520394676      -37.0026748050        1.3897000322  W2        860             0.0000000000
      2579       860  TIP3      H1             20.6858594676      -37.7684148050        1.8321700322  W2        860             0.0000000000
      2580       860  TIP3      H2             21.9648894676      -36.9736548050        1.6762100322  W2        860             0.0000000000
      2581       861  TIP3      OH2            23.0251194676      -37.6522348050        2.9254100322  W2        861             0.0000000000
      2582       861  TIP3      H1             23.9234794676      -37.9262148050        2.7407500322  W2        861             0.0000000000
      2583       861  TIP3      H2             22.6384294676      -38.3946348050        3.3896700322  W2        861             0.0000000000
      2584       862  TIP3      OH2            21.6496494676      -20.8507548050      -14.4015899678  W2        862             0.0000000000
      2585       862  TIP3      H1             21.3821094676      -20.5644648050      -13.5282799678  W2        862             0.0000000000
      2586       862  TIP3      H2             22.4209094676      -21.3968348050      -14.2493399678  W2        862             0.0000000000
      2587       863  TIP3      OH2            31.4463494676      -38.3197048050        3.1076900322  W2        863             0.0000000000
      2588       863  TIP3      H1             31.5230694676      -38.7456348050        3.9614600322  W2        863             0.0000000000
      2589       863  TIP3      H2             32.3400094676      -38.3062348050        2.7650400322  W2        863             0.0000000000
      2590       864  TIP3      OH2            34.6224594676      -22.2470748050        1.8001100322  W2        864             0.0000000000
      2591       864  TIP3      H1             33.8406494676      -22.4332748050        1.2801700322  W2        864             0.0000000000
      2592       864  TIP3      H2             34.5504494676      -21.3176448050        2.0173600322  W2        864             0.0000000000
      2593       865  TIP3      OH2            37.8634894676      -31.3812048050       -9.2295699678  W2        865             0.0000000000
      2594       865  TIP3      H1             37.4158294676      -30.5353348050       -9.2479199678  W2        865             0.0000000000
      2595       865  TIP3      H2             37.3026094676      -31.9607848050       -9.7450599678  W2        865             0.0000000000
      2596       866  TIP3      OH2            37.8841694676      -26.8443348050       -1.4787899678  W2        866             0.0000000000
      2597       866  TIP3      H1             37.3830094676      -26.8723948050       -2.2938199678  W2        866             0.0000000000
      2598       866  TIP3      H2             37.8895394676      -27.7500148050       -1.1690599678  W2        866             0.0000000000
      2599       867  TIP3      OH2            37.6344394676      -24.0639548050       -4.5947699678  W2        867             0.0000000000
      2600       867  TIP3      H1             38.5804994676      -24.2082548050       -4.6138199678  W2        867             0.0000000000
      2601       867  TIP3      H2             37.5220694676      -23.2796748050       -4.0576499678  W2        867             0.0000000000
      2602       868  TIP3      OH2            37.2011594676      -34.6487648050       -7.6273999678  W2        868             0.0000000000
      2603       868  TIP3      H1             37.8319294676      -34.6775548050       -6.9080099678  W2        868             0.0000000000
      2604       868  TIP3      H2             37.6505894676      -35.0738948050       -8.3578099678  W2        868             0.0000000000
      2605       869  TIP3      OH2            38.0450894676      -29.2921648050       -0.2763799678  W2        869             0.0000000000
      2606       869  TIP3      H1             38.2679494676      -29.7102048050        0.5553700322  W2        869             0.0000000000
      2607       869  TIP3      H2             37.4430994676      -29.9046648050       -0.6990999678  W2        869             0.0000000000
      2608       870  TIP3      OH2            38.4475294676      -27.0369048050        3.0233500322  W2        870             0.0000000000
      2609       870  TIP3      H1             38.5915794676      -27.9388348050        2.7370200322  W2        870             0.0000000000
      2610       870  TIP3      H2             37.6752694676      -26.7506948050        2.5355800322  W2        870             0.0000000000
      2611       871  TIP3      OH2            37.1240394676      -19.7579348050       -8.7145099678  W2        871             0.0000000000
      2612       871  TIP3      H1             36.4767494676      -20.2197648050       -9.2473899678  W2        871             0.0000000000
      2613       871  TIP3      H2             37.4784994676      -20.4296048050       -8.1318899678  W2        871             0.0000000000
      2614       872  TIP3      OH2            37.9939594676      -21.6772348050       -6.9098899678  W2        872             0.0000000000
      2615       872  TIP3      H1             37.6596394676      -22.5575048050       -6.7378699678  W2        872             0.0000000000
      2616       872  TIP3      H2             38.2161994676      -21.3317348050       -6.0453299678  W2        872             0.0000000000
      2617       873  TIP3      OH2            38.0739094676      -28.6016948050       -4.4583999678  W2        873             0.0000000000
      2618       873  TIP3      H1             38.2581994676      -28.6835248050       -5.3941099678  W2        873             0.0000000000
      2619       873  TIP3      H2             38.9231994676      -28.7259948050       -4.0347599678  W2        873             0.0000000000
      2620       874  TIP3      OH2            37.6713894676      -33.3311948050        1.6824800322  W2        874             0.0000000000
      2621       874  TIP3      H1             38.5908794676      -33.4533648050        1.9187900322  W2        874             0.0000000000
      2622       874  TIP3      H2             37.2218394676      -34.0812248050        2.0718300322  W2        874             0.0000000000
      2623       875  TIP3      OH2            37.1966694676      -32.0197348050       -4.3572099678  W2        875             0.0000000000
      2624       875  TIP3      H1             37.6886494676      -32.2406848050       -5.1480099678  W2        875             0.0000000000
      2625       875  TIP3      H2             37.5587594676      -31.1793948050       -4.0762599678  W2        875             0.0000000000
      2626       876  TIP3      OH2            37.5103194676      -35.7618248050      -10.3029699678  W2        876             0.0000000000
      2627       876  TIP3      H1             36.5851594676      -35.5531648050      -10.4324199678  W2        876             0.0000000000
      2628       876  TIP3      H2             37.9643094676      -35.2777448050      -10.9927399678  W2        876             0.0000000000
      2629       877  TIP3      OH2            37.4738594676      -37.0239248050       -1.9587199678  W2        877             0.0000000000
      2630       877  TIP3      H1             36.8089094676      -37.2698948050       -1.3156299678  W2        877             0.0000000000
      2631       877  TIP3      H2             37.0309894676      -36.4018848050       -2.5359199678  W2        877             0.0000000000
      2632       878  TIP3      OH2           -26.3955005324       -9.5046348050       -8.1691699678  W2        878             0.0000000000
      2633       878  TIP3      H1            -26.3063905324       -8.5608148050       -8.3014599678  W2        878             0.0000000000
      2634       878  TIP3      H2            -27.0337405324       -9.7799948050       -8.8272299678  W2        878             0.0000000000
      2635       879  TIP3      OH2           -27.4623705324      -10.2495648050       -4.7503499678  W2        879             0.0000000000
      2636       879  TIP3      H1            -27.5006205324      -10.8959348050       -4.0453899678  W2        879             0.0000000000
      2637       879  TIP3      H2            -27.7847205324      -10.7161248050       -5.5214799678  W2        879             0.0000000000
      2638       880  TIP3      OH2           -35.0938705324      -10.6353548050       -3.1573599678  W2        880             0.0000000000
      2639       880  TIP3      H1            -35.0526605324      -11.2610248050       -2.4341199678  W2        880             0.0000000000
      2640       880  TIP3      H2            -34.3911005324      -10.0114948050       -2.9753199678  W2        880             0.0000000000
      2641       881  TIP3      OH2           -23.7563505324       -7.3105248050       -6.4488399678  W2        881             0.0000000000
      2642       881  TIP3      H1            -24.1970805324       -8.0309248050       -5.9982799678  W2        881             0.0000000000
      2643       881  TIP3      H2            -23.7693805324       -6.5898048050       -5.8190699678  W2        881             0.0000000000
      2644       882  TIP3      OH2           -34.1705605324       -6.1854648050       -4.6224499678  W2        882             0.0000000000
      2645       882  TIP3      H1            -34.5400405324       -6.9874148050       -4.9920199678  W2        882             0.0000000000
      2646       882  TIP3      H2            -33.2294505324       -6.3539748050       -4.5761099678  W2        882             0.0000000000
      2647       883  TIP3      OH2           -37.5605105324      -12.5252048050       -9.2295699678  W2        883             0.0000000000
      2648       883  TIP3      H1            -38.0081705324      -11.6793348050       -9.2479199678  W2        883             0.0000000000
      2649       883  TIP3      H2            -38.1213905324      -13.1047848050       -9.7450599678  W2        883             0.0000000000
      2650       884  TIP3      OH2           -36.8499005324      -10.3632448050       -7.1037699678  W2        884             0.0000000000
      2651       884  TIP3      H1            -36.6365505324      -11.1330848050       -6.5764699678  W2        884             0.0000000000
      2652       884  TIP3      H2            -36.1121405324      -10.2735748050       -7.7070099678  W2        884             0.0000000000
      2653       885  TIP3      OH2           -26.6448005324       -2.2063548050       -6.2367999678  W2        885             0.0000000000
      2654       885  TIP3      H1            -26.0251605324       -2.8828848050       -6.5098799678  W2        885             0.0000000000
      2655       885  TIP3      H2            -26.8530605324       -2.4242748050       -5.3283099678  W2        885             0.0000000000
      2656       886  TIP3      OH2           -29.0729305324       -7.8174248050       -4.3442499678  W2        886             0.0000000000
      2657       886  TIP3      H1            -28.7691405324       -8.5032848050       -4.9388399678  W2        886             0.0000000000
      2658       886  TIP3      H2            -28.3515305324       -7.6985548050       -3.7264499678  W2        886             0.0000000000
      2659       887  TIP3      OH2           -20.4099505324      -16.2158948050       -3.4836299678  W2        887             0.0000000000
      2660       887  TIP3      H1            -20.3607305324      -15.6057748050       -2.7477199678  W2        887             0.0000000000
      2661       887  TIP3      H2            -19.9844405324      -15.7548048050       -4.2065199678  W2        887             0.0000000000
      2662       888  TIP3      OH2           -25.9322305324      -13.4231848050       -4.0167699678  W2        888             0.0000000000
      2663       888  TIP3      H1            -25.7896405324      -14.3694848050       -3.9966099678  W2        888             0.0000000000
      2664       888  TIP3      H2            -26.0383305324      -13.2162048050       -4.9452799678  W2        888             0.0000000000
      2665       889  TIP3      OH2           -32.7774005324      -15.3215448050       -6.7442899678  W2        889             0.0000000000
      2666       889  TIP3      H1            -32.7342905324      -14.4616948050       -7.1626599678  W2        889             0.0000000000
      2667       889  TIP3      H2            -33.2349905324      -15.8740748050       -7.3779699678  W2        889             0.0000000000
      2668       890  TIP3      OH2           -25.0551305324      -15.1909848050       -8.3434599678  W2        890             0.0000000000
      2669       890  TIP3      H1            -24.4087005324      -15.5196648050       -7.7186999678  W2        890             0.0000000000
      2670       890  TIP3      H2            -24.5451905324      -14.6730848050       -8.9663199678  W2        890             0.0000000000
      2671       891  TIP3      OH2           -36.1572505324      -12.9249648050       -5.9821499678  W2        891             0.0000000000
      2672       891  TIP3      H1            -35.5035905324      -13.4747948050       -5.5501399678  W2        891             0.0000000000
      2673       891  TIP3      H2            -36.1333205324      -13.1990648050       -6.8989499678  W2        891             0.0000000000
      2674       892  TIP3      OH2           -31.0008005324      -11.3748348050       -6.7669999678  W2        892             0.0000000000
      2675       892  TIP3      H1            -30.3847005324      -11.9012948050       -6.2575999678  W2        892             0.0000000000
      2676       892  TIP3      H2            -31.5869205324      -12.0149648050       -7.1706399678  W2        892             0.0000000000
      2677       893  TIP3      OH2           -20.0184905324      -14.7379748050       -1.2476499678  W2        893             0.0000000000
      2678       893  TIP3      H1            -20.7070305324      -14.0799048050       -1.3429899678  W2        893             0.0000000000
      2679       893  TIP3      H2            -20.0030305324      -14.9351848050       -0.3111099678  W2        893             0.0000000000
      2680       894  TIP3      OH2           -33.9672105324      -16.4037048050       -2.6702099678  W2        894             0.0000000000
      2681       894  TIP3      H1            -34.1860405324      -15.8736448050       -3.4366099678  W2        894             0.0000000000
      2682       894  TIP3      H2            -34.6351205324      -16.1771548050       -2.0230699678  W2        894             0.0000000000
      2683       895  TIP3      OH2           -26.5982305324       -6.9035948050       -9.1262999678  W2        895             0.0000000000
      2684       895  TIP3      H1            -26.8937205324       -7.2263648050       -9.9776099678  W2        895             0.0000000000
      2685       895  TIP3      H2            -26.9224505324       -6.0039248050       -9.0850399678  W2        895             0.0000000000
      2686       896  TIP3      OH2           -31.3980705324       -8.7281348050       -2.3828399678  W2        896             0.0000000000
      2687       896  TIP3      H1            -32.1381605324       -8.1299848050       -2.2793199678  W2        896             0.0000000000
      2688       896  TIP3      H2            -30.6841205324       -8.1741748050       -2.6984799678  W2        896             0.0000000000
      2689       897  TIP3      OH2           -23.2912905324      -15.9000548050       -6.3628699678  W2        897             0.0000000000
      2690       897  TIP3      H1            -23.5064905324      -16.6657148050       -5.8302699678  W2        897             0.0000000000
      2691       897  TIP3      H2            -22.6355505324      -15.4275948050       -5.8500199678  W2        897             0.0000000000
      2692       898  TIP3      OH2           -34.3734805324      -14.5115248050       -4.7179899678  W2        898             0.0000000000
      2693       898  TIP3      H1            -33.7598505324      -13.8787648050       -4.3447499678  W2        898             0.0000000000
      2694       898  TIP3      H2            -33.8614105324      -14.9840248050       -5.3742999678  W2        898             0.0000000000
      2695       899  TIP3      OH2           -32.9906405324       -6.7638348050       -1.5956899678  W2        899             0.0000000000
      2696       899  TIP3      H1            -32.9958805324       -5.8844848050       -1.9737599678  W2        899             0.0000000000
      2697       899  TIP3      H2            -33.8442305324       -6.8474248050       -1.1706999678  W2        899             0.0000000000
      2698       900  TIP3      OH2           -36.8695505324       -7.0930448050      -10.8137599678  W2        900             0.0000000000
      2699       900  TIP3      H1            -37.1414605324       -6.8639448050      -11.7024699678  W2        900             0.0000000000
      2700       900  TIP3      H2            -36.8239805324       -6.2551648050      -10.3532299678  W2        900             0.0000000000
      2701       901  TIP3      OH2           -23.2445805324       -5.4714548050       -4.1009099678  W2        901             0.0000000000
      2702       901  TIP3      H1            -24.1862105324       -5.4130648050       -3.9392199678  W2        901             0.0000000000
      2703       901  TIP3      H2            -22.9679705324       -4.5654048050       -4.2379399678  W2        901             0.0000000000
      2704       902  TIP3      OH2           -22.9438805324      -17.1849248050       -2.6835199678  W2        902             0.0000000000
      2705       902  TIP3      H1            -23.6799605324      -16.5742148050       -2.7213899678  W2        902             0.0000000000
      2706       902  TIP3      H2            -22.2604805324      -16.7700248050       -3.2098799678  W2        902             0.0000000000
      2707       903  TIP3      OH2           -29.9407405324      -19.0981948050       -5.2177199678  W2        903             0.0000000000
      2708       903  TIP3      H1            -30.0583205324      -20.0465948050       -5.2718899678  W2        903             0.0000000000
      2709       903  TIP3      H2            -30.7957305324      -18.7655848050       -4.9446099678  W2        903             0.0000000000
      2710       904  TIP3      OH2           -24.9924605324       -3.6901048050       -7.4757499678  W2        904             0.0000000000
      2711       904  TIP3      H1            -24.5672305324       -4.3973148050       -7.9607899678  W2        904             0.0000000000
      2712       904  TIP3      H2            -24.6754605324       -2.8888348050       -7.8925299678  W2        904             0.0000000000
      2713       905  TIP3      OH2           -23.8328105324       -5.7892548050       -8.9670899678  W2        905             0.0000000000
      2714       905  TIP3      H1            -24.0903305324       -6.4792448050       -9.5784999678  W2        905             0.0000000000
      2715       905  TIP3      H2            -23.7617305324       -6.2321348050       -8.1214999678  W2        905             0.0000000000
      2716       906  TIP3      OH2           -22.1467905324       -7.2225848050       -0.4897399678  W2        906             0.0000000000
      2717       906  TIP3      H1            -22.0071605324       -7.8143348050       -1.2290399678  W2        906             0.0000000000
      2718       906  TIP3      H2            -21.9795105324       -6.3499948050       -0.8458599678  W2        906             0.0000000000
      2719       907  TIP3      OH2           -27.6742505324      -10.2606348050      -10.7171399678  W2        907             0.0000000000
      2720       907  TIP3      H1            -28.3857005324       -9.7256648050      -11.0690899678  W2        907             0.0000000000
      2721       907  TIP3      H2            -26.9832905324      -10.2054248050      -11.3772499678  W2        907             0.0000000000
      2722       908  TIP3      OH2           -27.6203305324      -11.8032048050      -13.6786399678  W2        908             0.0000000000
      2723       908  TIP3      H1            -26.9193405324      -11.7805148050      -13.0272399678  W2        908             0.0000000000
      2724       908  TIP3      H2            -27.3180405324      -12.4312348050      -14.3347099678  W2        908             0.0000000000
      2725       909  TIP3      OH2           -20.3048605324      -10.8827848050       -2.4236999678  W2        909             0.0000000000
      2726       909  TIP3      H1            -20.9574505324      -10.1882248050       -2.3346099678  W2        909             0.0000000000
      2727       909  TIP3      H2            -19.8398305324      -10.6726948050       -3.2335399678  W2        909             0.0000000000
      2728       910  TIP3      OH2           -24.2684805324      -10.0513048050       -9.7655499678  W2        910             0.0000000000
      2729       910  TIP3      H1            -25.0003805324       -9.8229348050       -9.1924899678  W2        910             0.0000000000
      2730       910  TIP3      H2            -23.8212605324      -10.7650348050       -9.3107999678  W2        910             0.0000000000
      2731       911  TIP3      OH2           -24.3711305324      -11.8770448050       -0.6978499678  W2        911             0.0000000000
      2732       911  TIP3      H1            -24.2912205324      -11.1136048050       -0.1259999678  W2        911             0.0000000000
      2733       911  TIP3      H2            -24.9723605324      -11.5978048050       -1.3883399678  W2        911             0.0000000000
      2734       912  TIP3      OH2           -32.6231105324       -9.4206848050       -7.8830499678  W2        912             0.0000000000
      2735       912  TIP3      H1            -32.9535905324       -9.7913448050       -8.7013499678  W2        912             0.0000000000
      2736       912  TIP3      H2            -32.0347005324      -10.0912848050       -7.5362199678  W2        912             0.0000000000
      2737       913  TIP3      OH2           -31.2563605324       -5.9926248050       -5.2018299678  W2        913             0.0000000000
      2738       913  TIP3      H1            -31.3512305324       -6.5713148050       -5.9583699678  W2        913             0.0000000000
      2739       913  TIP3      H2            -30.5270005324       -6.3640548050       -4.7055499678  W2        913             0.0000000000
      2740       914  TIP3      OH2           -32.2565605324      -10.6521248050       -4.2495499678  W2        914             0.0000000000
      2741       914  TIP3      H1            -31.6913105324      -10.5307048050       -5.0124299678  W2        914             0.0000000000
      2742       914  TIP3      H2            -31.9376705324      -10.0146248050       -3.6106999678  W2        914             0.0000000000
      2743       915  TIP3      OH2           -25.9473405324       -5.1489348050       -3.5154999678  W2        915             0.0000000000
      2744       915  TIP3      H1            -26.1876805324       -4.4866248050       -2.8675799678  W2        915             0.0000000000
      2745       915  TIP3      H2            -26.1455205324       -5.9834148050       -3.0905399678  W2        915             0.0000000000
      2746       916  TIP3      OH2           -31.3764905324       -6.2528548050        0.4676400322  W2        916             0.0000000000
      2747       916  TIP3      H1            -31.6877405324       -5.4705348050        0.9229600322  W2        916             0.0000000000
      2748       916  TIP3      H2            -32.0264705324       -6.4059448050       -0.2181599678  W2        916             0.0000000000
      2749       917  TIP3      OH2           -25.3975305324      -10.8890148050      -12.0804299678  W2        917             0.0000000000
      2750       917  TIP3      H1            -24.8179805324      -10.7389848050      -11.3335399678  W2        917             0.0000000000
      2751       917  TIP3      H2            -24.9835305324      -10.4182748050      -12.8037899678  W2        917             0.0000000000
      2752       918  TIP3      OH2           -34.4565005324      -10.0547448050       -0.3037899678  W2        918             0.0000000000
      2753       918  TIP3      H1            -34.3861805324       -9.4040648050        0.3947100322  W2        918             0.0000000000
      2754       918  TIP3      H2            -35.3472805324       -9.9519948050       -0.6386999678  W2        918             0.0000000000
      2755       919  TIP3      OH2           -27.6710405324       -4.1521648050       -8.6451199678  W2        919             0.0000000000
      2756       919  TIP3      H1            -27.1972805324       -3.8565348050       -7.8676999678  W2        919             0.0000000000
      2757       919  TIP3      H2            -28.2341105324       -3.4140048050       -8.8781599678  W2        919             0.0000000000
      2758       920  TIP3      OH2           -33.1369005324       -4.1813548050        1.2310200322  W2        920             0.0000000000
      2759       920  TIP3      H1            -33.1293705324       -4.3173848050        0.2835700322  W2        920             0.0000000000
      2760       920  TIP3      H2            -34.0528605324       -4.2985448050        1.4830200322  W2        920             0.0000000000
      2761       921  TIP3      OH2           -21.6986905324      -19.1389748050      -12.2674599678  W2        921             0.0000000000
      2762       921  TIP3      H1            -22.5986205324      -19.0000748050      -11.9723999678  W2        921             0.0000000000
      2763       921  TIP3      H2            -21.4468505324      -18.3075148050      -12.6692899678  W2        921             0.0000000000
      2764       922  TIP3      OH2           -33.6328405324      -10.3512548050      -10.2937699678  W2        922             0.0000000000
      2765       922  TIP3      H1            -33.9247105324       -9.5830848050      -10.7846399678  W2        922             0.0000000000
      2766       922  TIP3      H2            -34.3073205324      -11.0106348050      -10.4566299678  W2        922             0.0000000000
      2767       923  TIP3      OH2           -20.5095505324       -4.7727348050      -13.8910699678  W2        923             0.0000000000
      2768       923  TIP3      H1            -20.4362005324       -3.8337148050      -13.7205399678  W2        923             0.0000000000
      2769       923  TIP3      H2            -19.6040405324       -5.0778748050      -13.9473399678  W2        923             0.0000000000
      2770       924  TIP3      OH2           -37.5398305324       -7.9883348050       -1.4787899678  W2        924             0.0000000000
      2771       924  TIP3      H1            -38.0409905324       -8.0163948050       -2.2938199678  W2        924             0.0000000000
      2772       924  TIP3      H2            -37.5344605324       -8.8940148050       -1.1690599678  W2        924             0.0000000000
      2773       925  TIP3      OH2           -37.7895605324       -5.2079548050       -4.5947699678  W2        925             0.0000000000
      2774       925  TIP3      H1            -36.8435005324       -5.3522548050       -4.6138199678  W2        925             0.0000000000
      2775       925  TIP3      H2            -37.9019305324       -4.4236748050       -4.0576499678  W2        925             0.0000000000
      2776       926  TIP3      OH2           -19.5917105324       -4.5419848050        1.0876000322  W2        926             0.0000000000
      2777       926  TIP3      H1            -19.6410305324       -5.4971748050        1.0503600322  W2        926             0.0000000000
      2778       926  TIP3      H2            -20.4184805324       -4.2744548050        1.4889800322  W2        926             0.0000000000
      2779       927  TIP3      OH2           -28.6133105324       -4.9680648050       -0.0362599678  W2        927             0.0000000000
      2780       927  TIP3      H1            -28.5258505324       -4.1416048050        0.4386500322  W2        927             0.0000000000
      2781       927  TIP3      H2            -29.4768005324       -5.2976848050        0.2126700322  W2        927             0.0000000000
      2782       928  TIP3      OH2           -28.1987305324       -1.1956948050      -10.2301999678  W2        928             0.0000000000
      2783       928  TIP3      H1            -28.2741305324       -1.3169748050      -11.1766799678  W2        928             0.0000000000
      2784       928  TIP3      H2            -28.1658605324       -0.2464248050      -10.1117399678  W2        928             0.0000000000
      2785       929  TIP3      OH2           -34.5453505324       -2.4069948050       -8.4492999678  W2        929             0.0000000000
      2786       929  TIP3      H1            -34.3933105324       -2.7549548050       -7.5706499678  W2        929             0.0000000000
      2787       929  TIP3      H2            -35.3963105324       -2.7632648050       -8.7045799678  W2        929             0.0000000000
      2788       930  TIP3      OH2           -25.0971305324       -2.0416748050      -13.2279599678  W2        930             0.0000000000
      2789       930  TIP3      H1            -24.7222905324       -2.7860648050      -13.6986999678  W2        930             0.0000000000
      2790       930  TIP3      H2            -25.0927605324       -2.3116148050      -12.3096299678  W2        930             0.0000000000
      2791       931  TIP3      OH2           -25.4283205324       -2.1159648050      -10.4787399678  W2        931             0.0000000000
      2792       931  TIP3      H1            -26.3633405324       -2.0157748050      -10.3000399678  W2        931             0.0000000000
      2793       931  TIP3      H2            -25.1481305324       -2.8253648050       -9.9004199678  W2        931             0.0000000000
      2794       932  TIP3      OH2           -22.4397305324      -13.0487348050        1.5678200322  W2        932             0.0000000000
      2795       932  TIP3      H1            -22.8470505324      -12.5681748050        0.8471500322  W2        932             0.0000000000
      2796       932  TIP3      H2            -22.3991605324      -13.9541348050        1.2599000322  W2        932             0.0000000000
      2797       933  TIP3      OH2           -35.2907805324       -6.6647948050       -0.4355099678  W2        933             0.0000000000
      2798       933  TIP3      H1            -35.0746505324       -7.0262348050        0.4240700322  W2        933             0.0000000000
      2799       933  TIP3      H2            -36.1463105324       -7.0394148050       -0.6451599678  W2        933             0.0000000000
      2800       934  TIP3      OH2           -32.6719805324      -18.1947448050       -4.4400899678  W2        934             0.0000000000
      2801       934  TIP3      H1            -33.5336105324      -18.2819248050       -4.8477999678  W2        934             0.0000000000
      2802       934  TIP3      H2            -32.6944105324      -17.3387348050       -4.0123299678  W2        934             0.0000000000
      2803       935  TIP3      OH2           -28.0092005324      -18.4727048050       -1.0653899678  W2        935             0.0000000000
      2804       935  TIP3      H1            -27.5888905324      -18.8879948050       -0.3123299678  W2        935             0.0000000000
      2805       935  TIP3      H2            -28.9422405324      -18.6513748050       -0.9481899678  W2        935             0.0000000000
      2806       936  TIP3      OH2           -24.6827105324      -14.7171848050       -0.2119399678  W2        936             0.0000000000
      2807       936  TIP3      H1            -25.1967605324      -14.8429648050        0.5856600322  W2        936             0.0000000000
      2808       936  TIP3      H2            -24.8382405324      -13.8048748050       -0.4563199678  W2        936             0.0000000000
      2809       937  TIP3      OH2           -23.9202205324       -9.8561848050      -14.4506399678  W2        937             0.0000000000
      2810       937  TIP3      H1            -23.8781405324      -10.0787948050      -15.3806399678  W2        937             0.0000000000
      2811       937  TIP3      H2            -23.0710105324       -9.4574748050      -14.2606499678  W2        937             0.0000000000
      2812       938  TIP3      OH2           -28.3474705324      -15.9803648050      -13.7803099678  W2        938             0.0000000000
      2813       938  TIP3      H1            -28.6009905324      -15.9612048050      -12.8574999678  W2        938             0.0000000000
      2814       938  TIP3      H2            -28.6042605324      -16.8518248050      -14.0816899678  W2        938             0.0000000000
      2815       939  TIP3      OH2           -32.5809705324      -13.2292948050       -3.3450699678  W2        939             0.0000000000
      2816       939  TIP3      H1            -33.2227605324      -13.2695648050       -2.6360599678  W2        939             0.0000000000
      2817       939  TIP3      H2            -32.5437705324      -12.3028248050       -3.5827699678  W2        939             0.0000000000
      2818       940  TIP3      OH2           -32.5840605324      -13.0082848050       -8.4330699678  W2        940             0.0000000000
      2819       940  TIP3      H1            -33.4767705324      -13.3486748050       -8.4916899678  W2        940             0.0000000000
      2820       940  TIP3      H2            -32.1334005324      -13.3851948050       -9.1887499678  W2        940             0.0000000000
      2821       941  TIP3      OH2           -27.0485105324      -12.5922548050       -9.6159899678  W2        941             0.0000000000
      2822       941  TIP3      H1            -27.4574805324      -11.7773948050       -9.9075099678  W2        941             0.0000000000
      2823       941  TIP3      H2            -26.3278905324      -12.7322448050      -10.2302799678  W2        941             0.0000000000
      2824       942  TIP3      OH2           -27.9463505324      -12.4166148050        1.8720800322  W2        942             0.0000000000
      2825       942  TIP3      H1            -28.5089705324      -13.1214548050        2.1928600322  W2        942             0.0000000000
      2826       942  TIP3      H2            -27.1200105324      -12.5374248050        2.3398400322  W2        942             0.0000000000
      2827       943  TIP3      OH2           -26.0437405324      -13.1462148050       -6.8020199678  W2        943             0.0000000000
      2828       943  TIP3      H1            -26.2392905324      -12.5405348050       -7.5169599678  W2        943             0.0000000000
      2829       943  TIP3      H2            -25.8624805324      -13.9796948050       -7.2363899678  W2        943             0.0000000000
      2830       944  TIP3      OH2           -34.8309205324      -12.9089448050       -1.4778699678  W2        944             0.0000000000
      2831       944  TIP3      H1            -34.8689805324      -12.5087848050       -0.6091599678  W2        944             0.0000000000
      2832       944  TIP3      H2            -35.3218105324      -13.7257048050       -1.3875799678  W2        944             0.0000000000
      2833       945  TIP3      OH2           -31.4651805324      -15.5347148050      -14.6792699678  W2        945             0.0000000000
      2834       945  TIP3      H1            -31.8961105324      -15.9797048050      -13.9495299678  W2        945             0.0000000000
      2835       945  TIP3      H2            -32.1833105324      -15.1630848050      -15.1915199678  W2        945             0.0000000000
      2836       946  TIP3      OH2           -38.2228405324      -15.7927648050       -7.6273999678  W2        946             0.0000000000
      2837       946  TIP3      H1            -37.5920705324      -15.8215548050       -6.9080099678  W2        946             0.0000000000
      2838       946  TIP3      H2            -37.7734105324      -16.2178948050       -8.3578099678  W2        946             0.0000000000
      2839       947  TIP3      OH2           -36.9486305324      -15.0465648050      -12.2033599678  W2        947             0.0000000000
      2840       947  TIP3      H1            -36.4744605324      -14.4555748050      -12.7882699678  W2        947             0.0000000000
      2841       947  TIP3      H2            -37.6659905324      -14.5162748050      -11.8563499678  W2        947             0.0000000000
      2842       948  TIP3      OH2           -26.7798205324      -11.5080848050       -2.1307799678  W2        948             0.0000000000
      2843       948  TIP3      H1            -26.4563405324      -12.1391148050       -2.7737299678  W2        948             0.0000000000
      2844       948  TIP3      H2            -27.2198905324      -12.0428648050       -1.4700399678  W2        948             0.0000000000
      2845       949  TIP3      OH2           -30.0025305324      -15.5805348050       -7.3466599678  W2        949             0.0000000000
      2846       949  TIP3      H1            -30.9134205324      -15.5238548050       -7.0580599678  W2        949             0.0000000000
      2847       949  TIP3      H2            -29.4972405324      -15.6409848050       -6.5359399678  W2        949             0.0000000000
      2848       950  TIP3      OH2           -35.1741905324      -13.9519048050       -8.5198999678  W2        950             0.0000000000
      2849       950  TIP3      H1            -36.0633905324      -13.8523548050       -8.8599399678  W2        950             0.0000000000
      2850       950  TIP3      H2            -34.8777005324      -14.7936048050       -8.8661099678  W2        950             0.0000000000
      2851       951  TIP3      OH2           -31.5210105324      -13.9516448050      -10.8634399678  W2        951             0.0000000000
      2852       951  TIP3      H1            -30.5894605324      -13.8226448050      -10.6851299678  W2        951             0.0000000000
      2853       951  TIP3      H2            -31.7359805324      -13.2822148050      -11.5129699678  W2        951             0.0000000000
      2854       952  TIP3      OH2           -25.5973405324      -16.3459048050       -4.0824799678  W2        952             0.0000000000
      2855       952  TIP3      H1            -26.2741805324      -16.2145948050       -3.4185099678  W2        952             0.0000000000
      2856       952  TIP3      H2            -26.0828505324      -16.5009548050       -4.8927099678  W2        952             0.0000000000
      2857       953  TIP3      OH2           -32.8469905324      -12.7574248050      -13.2968299678  W2        953             0.0000000000
      2858       953  TIP3      H1            -33.3894805324      -13.1370448050      -13.9880699678  W2        953             0.0000000000
      2859       953  TIP3      H2            -32.0135005324      -12.5629548050      -13.7254199678  W2        953             0.0000000000
      2860       954  TIP3      OH2           -22.3098305324       -0.6743648050        2.1942800322  W2        954             0.0000000000
      2861       954  TIP3      H1            -22.1099605324       -0.2501748050        1.3598100322  W2        954             0.0000000000
      2862       954  TIP3      H2            -21.6544605324       -0.3305448050        2.8013200322  W2        954             0.0000000000
      2863       955  TIP3      OH2           -34.7118505324       -8.2002348050        1.8023300322  W2        955             0.0000000000
      2864       955  TIP3      H1            -33.9796105324       -7.9456448050        2.3637800322  W2        955             0.0000000000
      2865       955  TIP3      H2            -35.4919805324       -7.9956948050        2.3178700322  W2        955             0.0000000000
      2866       956  TIP3      OH2           -28.6825605324      -12.7932348050       -5.4596999678  W2        956             0.0000000000
      2867       956  TIP3      H1            -28.1182205324      -13.3395748050       -6.0067399678  W2        956             0.0000000000
      2868       956  TIP3      H2            -28.8302205324      -13.3150448050       -4.6709399678  W2        956             0.0000000000
      2869       957  TIP3      OH2           -33.6805905324      -16.6566248050       -9.0412199678  W2        957             0.0000000000
      2870       957  TIP3      H1            -33.9976405324      -17.5590948050       -9.0766799678  W2        957             0.0000000000
      2871       957  TIP3      H2            -32.8991805324      -16.6548848050       -9.5940599678  W2        957             0.0000000000
      2872       958  TIP3      OH2           -30.0559705324      -14.4046248050       -3.0456599678  W2        958             0.0000000000
      2873       958  TIP3      H1            -30.8914405324      -13.9506748050       -2.9354199678  W2        958             0.0000000000
      2874       958  TIP3      H2            -29.5319105324      -14.1287748050       -2.2936699678  W2        958             0.0000000000
      2875       959  TIP3      OH2           -29.5117105324       -8.1918548050      -11.3610199678  W2        959             0.0000000000
      2876       959  TIP3      H1            -30.2566105324       -8.6993248050      -11.6832299678  W2        959             0.0000000000
      2877       959  TIP3      H2            -29.6459905324       -8.1430548050      -10.4145399678  W2        959             0.0000000000
      2878       960  TIP3      OH2           -22.3618205324       -9.0590348050       -2.5742599678  W2        960             0.0000000000
      2879       960  TIP3      H1            -21.7199405324       -8.6024048050       -3.1180399678  W2        960             0.0000000000
      2880       960  TIP3      H2            -23.1921305324       -8.9457948050       -3.0368499678  W2        960             0.0000000000
      2881       961  TIP3      OH2           -25.6140305324      -15.3778648050      -13.1617599678  W2        961             0.0000000000
      2882       961  TIP3      H1            -26.5526105324      -15.2663048050      -13.3128799678  W2        961             0.0000000000
      2883       961  TIP3      H2            -25.3168205324      -14.5211748050      -12.8551899678  W2        961             0.0000000000
      2884       962  TIP3      OH2           -27.9925005324       -8.0075248050       -0.1241099678  W2        962             0.0000000000
      2885       962  TIP3      H1            -28.3378905324       -8.3892848050        0.6828500322  W2        962             0.0000000000
      2886       962  TIP3      H2            -28.1924905324       -7.0741648050       -0.0528199678  W2        962             0.0000000000
      2887       963  TIP3      OH2           -24.8956805324      -13.5105948050      -11.5010199678  W2        963             0.0000000000
      2888       963  TIP3      H1            -24.0037805324      -13.6480948050      -11.1818999678  W2        963             0.0000000000
      2889       963  TIP3      H2            -24.8393205324      -12.7199848050      -12.0376699678  W2        963             0.0000000000
      2890       964  TIP3      OH2           -34.3868805324       -8.8968548050       -5.5912299678  W2        964             0.0000000000
      2891       964  TIP3      H1            -33.6421605324       -8.8992848050       -6.1925799678  W2        964             0.0000000000
      2892       964  TIP3      H2            -34.3092205324       -9.7204748050       -5.1097199678  W2        964             0.0000000000
      2893       965  TIP3      OH2           -27.3863005324       -6.7334248050      -12.3355599678  W2        965             0.0000000000
      2894       965  TIP3      H1            -27.6814605324       -5.9066348050      -11.9540799678  W2        965             0.0000000000
      2895       965  TIP3      H2            -28.0893005324       -7.3527348050      -12.1394199678  W2        965             0.0000000000
      2896       966  TIP3      OH2           -37.3789105324      -10.4361648050       -0.2763799678  W2        966             0.0000000000
      2897       966  TIP3      H1            -37.1560505324      -10.8542048050        0.5553700322  W2        966             0.0000000000
      2898       966  TIP3      H2            -37.9809005324      -11.0486648050       -0.6990999678  W2        966             0.0000000000
      2899       967  TIP3      OH2           -30.3624205324      -10.9191748050        1.9365900322  W2        967             0.0000000000
      2900       967  TIP3      H1            -30.6583405324      -11.0848748050        1.0415000322  W2        967             0.0000000000
      2901       967  TIP3      H2            -29.4309005324      -11.1391448050        1.9259800322  W2        967             0.0000000000
      2902       968  TIP3      OH2           -25.7421405324       -5.5459748050       -0.1736099678  W2        968             0.0000000000
      2903       968  TIP3      H1            -26.6427105324       -5.3627148050       -0.4412199678  W2        968             0.0000000000
      2904       968  TIP3      H2            -25.7080305324       -5.2870448050        0.7472700322  W2        968             0.0000000000
      2905       969  TIP3      OH2           -20.0108105324      -13.3011848050      -11.8063499678  W2        969             0.0000000000
      2906       969  TIP3      H1            -20.5651805324      -13.6973848050      -12.4785999678  W2        969             0.0000000000
      2907       969  TIP3      H2            -19.9104505324      -12.3906648050      -12.0840199678  W2        969             0.0000000000
      2908       970  TIP3      OH2           -20.0476105324       -7.5010148050        1.0308000322  W2        970             0.0000000000
      2909       970  TIP3      H1            -20.8987605324       -7.2626348050        0.6634400322  W2        970             0.0000000000
      2910       970  TIP3      H2            -19.4572705324       -7.5176948050        0.2775100322  W2        970             0.0000000000
      2911       971  TIP3      OH2           -21.7156405324       -4.5151448050      -11.3411399678  W2        971             0.0000000000
      2912       971  TIP3      H1            -22.0885305324       -5.3407648050      -11.0320799678  W2        971             0.0000000000
      2913       971  TIP3      H2            -21.4382905324       -4.6982048050      -12.2387999678  W2        971             0.0000000000
      2914       972  TIP3      OH2           -24.5552505324       -9.7071948050       -4.3199499678  W2        972             0.0000000000
      2915       972  TIP3      H1            -25.4835605324       -9.9390048050       -4.3470199678  W2        972             0.0000000000
      2916       972  TIP3      H2            -24.1041405324      -10.4842148050       -4.6500699678  W2        972             0.0000000000
      2917       973  TIP3      OH2           -32.0119405324       -5.3790348050       -8.1870799678  W2        973             0.0000000000
      2918       973  TIP3      H1            -31.4847205324       -4.6055948050       -8.3871999678  W2        973             0.0000000000
      2919       973  TIP3      H2            -32.8920905324       -5.1541148050       -8.4886799678  W2        973             0.0000000000
      2920       974  TIP3      OH2           -36.2571705324      -10.5166248050      -13.5998399678  W2        974             0.0000000000
      2921       974  TIP3      H1            -35.6411805324       -9.8899048050      -13.2203599678  W2        974             0.0000000000
      2922       974  TIP3      H2            -37.1189105324      -10.2006448050      -13.3281899678  W2        974             0.0000000000
      2923       975  TIP3      OH2           -30.5847105324       -7.7160448050       -8.6106499678  W2        975             0.0000000000
      2924       975  TIP3      H1            -30.8257105324       -6.7906048050       -8.5691199678  W2        975             0.0000000000
      2925       975  TIP3      H2            -31.3253505324       -8.1749148050       -8.2142599678  W2        975             0.0000000000
      2926       976  TIP3      OH2           -30.0700505324       -3.5666848050       -2.2955399678  W2        976             0.0000000000
      2927       976  TIP3      H1            -29.7075805324       -2.7121248050       -2.5290999678  W2        976             0.0000000000
      2928       976  TIP3      H2            -29.5385305324       -3.8585248050       -1.5549099678  W2        976             0.0000000000
      2929       977  TIP3      OH2           -31.9016305324       -2.6942848050       -9.0654299678  W2        977             0.0000000000
      2930       977  TIP3      H1            -32.8515805324       -2.5885448050       -9.0140999678  W2        977             0.0000000000
      2931       977  TIP3      H2            -31.5498205324       -1.8735448050       -8.7206799678  W2        977             0.0000000000
      2932       978  TIP3      OH2           -26.5259705324       -7.4676148050       -2.5949799678  W2        978             0.0000000000
      2933       978  TIP3      H1            -26.9518405324       -7.6954448050       -1.7685799678  W2        978             0.0000000000
      2934       978  TIP3      H2            -25.9453905324       -8.2064348050       -2.7774499678  W2        978             0.0000000000
      2935       979  TIP3      OH2           -24.3230805324       -6.5385648050      -13.5210799678  W2        979             0.0000000000
      2936       979  TIP3      H1            -23.9697705324       -6.9185848050      -12.7167299678  W2        979             0.0000000000
      2937       979  TIP3      H2            -25.2717305324       -6.6320848050      -13.4341499678  W2        979             0.0000000000
      2938       980  TIP3      OH2           -23.8675505324       -2.9156648050       -0.1254999678  W2        980             0.0000000000
      2939       980  TIP3      H1            -24.4692305324       -3.4713748050       -0.6208699678  W2        980             0.0000000000
      2940       980  TIP3      H2            -23.5861805324       -2.2486848050       -0.7517599678  W2        980             0.0000000000
      2941       981  TIP3      OH2           -19.8196405324       -2.0593148050      -13.3200599678  W2        981             0.0000000000
      2942       981  TIP3      H1            -19.0758505324       -1.4732648050      -13.4598999678  W2        981             0.0000000000
      2943       981  TIP3      H2            -20.5138305324       -1.4907348050      -12.9868199678  W2        981             0.0000000000
      2944       982  TIP3      OH2           -35.7449605324      -15.6828948050       -0.7182399678  W2        982             0.0000000000
      2945       982  TIP3      H1            -36.6377305324      -15.3443548050       -0.7858399678  W2        982             0.0000000000
      2946       982  TIP3      H2            -35.8436805324      -16.5382848050       -0.3001599678  W2        982             0.0000000000
      2947       983  TIP3      OH2           -23.4571505324       -7.8663648050      -11.2942899678  W2        983             0.0000000000
      2948       983  TIP3      H1            -23.7343905324       -8.5944348050      -10.7381799678  W2        983             0.0000000000
      2949       983  TIP3      H2            -22.5298505324       -7.7471648050      -11.0890299678  W2        983             0.0000000000
      2950       984  TIP3      OH2           -36.0937605324       -3.8784548050       -2.2832999678  W2        984             0.0000000000
      2951       984  TIP3      H1            -35.8767305324       -4.8102148050       -2.3143299678  W2        984             0.0000000000
      2952       984  TIP3      H2            -35.8474105324       -3.6039548050       -1.4000199678  W2        984             0.0000000000
      2953       985  TIP3      OH2           -30.2323005324       -5.4269548050      -15.0740799678  W2        985             0.0000000000
      2954       985  TIP3      H1            -29.9933205324       -6.1751448050      -15.6211899678  W2        985             0.0000000000
      2955       985  TIP3      H2            -30.5011705324       -5.8147848050      -14.2412999678  W2        985             0.0000000000
      2956       986  TIP3      OH2           -31.2952405324       -5.8565748050      -12.6178199678  W2        986             0.0000000000
      2957       986  TIP3      H1            -31.1484405324       -6.3765948050      -11.8277299678  W2        986             0.0000000000
      2958       986  TIP3      H2            -31.2980705324       -4.9498148050      -12.3112299678  W2        986             0.0000000000
      2959       987  TIP3      OH2           -34.8421305324       -8.6042448050      -12.1072799678  W2        987             0.0000000000
      2960       987  TIP3      H1            -35.5282005324       -8.2519948050      -11.5403099678  W2        987             0.0000000000
      2961       987  TIP3      H2            -34.3193405324       -7.8412848050      -12.3538499678  W2        987             0.0000000000
      2962       988  TIP3      OH2           -27.0106205324      -15.9418648050       -1.8283799678  W2        988             0.0000000000
      2963       988  TIP3      H1            -26.3118305324      -15.8679948050       -1.1784099678  W2        988             0.0000000000
      2964       988  TIP3      H2            -27.3914805324      -16.8063648050       -1.6740899678  W2        988             0.0000000000
      2965       989  TIP3      OH2           -26.2261305324      -16.2896948050      -10.7311499678  W2        989             0.0000000000
      2966       989  TIP3      H1            -26.0063005324      -15.8181548050      -11.5346099678  W2        989             0.0000000000
      2967       989  TIP3      H2            -25.6677305324      -15.8954348050      -10.0610899678  W2        989             0.0000000000
      2968       990  TIP3      OH2           -28.5575205324       -4.1592148050      -11.8683999678  W2        990             0.0000000000
      2969       990  TIP3      H1            -29.3739105324       -3.6622448050      -11.8159699678  W2        990             0.0000000000
      2970       990  TIP3      H2            -28.0278905324       -3.6838648050      -12.5085199678  W2        990             0.0000000000
      2971       991  TIP3      OH2           -29.0261405324      -14.5618148050       -9.8963099678  W2        991             0.0000000000
      2972       991  TIP3      H1            -28.2138805324      -14.0574948050       -9.8501399678  W2        991             0.0000000000
      2973       991  TIP3      H2            -29.2708405324      -14.7068448050       -8.9823499678  W2        991             0.0000000000
      2974       992  TIP3      OH2           -28.4905005324      -13.5755448050       -0.7116499678  W2        992             0.0000000000
      2975       992  TIP3      H1            -28.3714705324      -13.0020048050        0.0453900322  W2        992             0.0000000000
      2976       992  TIP3      H2            -27.8350405324      -14.2636048050       -0.5968699678  W2        992             0.0000000000
      2977       993  TIP3      OH2           -28.1424705324      -17.4805148050       -8.9581999678  W2        993             0.0000000000
      2978       993  TIP3      H1            -28.4891205324      -16.8634548050       -8.3137699678  W2        993             0.0000000000
      2979       993  TIP3      H2            -27.4837805324      -16.9799448050       -9.4396499678  W2        993             0.0000000000
      2980       994  TIP3      OH2           -31.2192105324       -3.1154948050      -11.8867099678  W2        994             0.0000000000
      2981       994  TIP3      H1            -31.0583405324       -2.3157448050      -12.3874499678  W2        994             0.0000000000
      2982       994  TIP3      H2            -31.4164305324       -2.8088948050      -11.0016499678  W2        994             0.0000000000
      2983       995  TIP3      OH2           -32.4847705324      -16.4175748050      -12.2709499678  W2        995             0.0000000000
      2984       995  TIP3      H1            -32.5682905324      -15.5292648050      -11.9243099678  W2        995             0.0000000000
      2985       995  TIP3      H2            -31.5947405324      -16.6829048050      -12.0392699678  W2        995             0.0000000000
      2986       996  TIP3      OH2           -22.2859205324      -15.6685148050        0.1233200322  W2        996             0.0000000000
      2987       996  TIP3      H1            -23.2023405324      -15.4063448050        0.0356900322  W2        996             0.0000000000
      2988       996  TIP3      H2            -21.9504205324      -15.6716148050       -0.7731499678  W2        996             0.0000000000
      2989       997  TIP3      OH2           -23.6838205324      -11.9184148050       -5.7809499678  W2        997             0.0000000000
      2990       997  TIP3      H1            -24.4813805324      -12.3333948050       -6.1094499678  W2        997             0.0000000000
      2991       997  TIP3      H2            -23.2387105324      -12.6090448050       -5.2898999678  W2        997             0.0000000000
      2992       998  TIP3      OH2           -34.2262405324       -5.9903548050      -13.2104999678  W2        998             0.0000000000
      2993       998  TIP3      H1            -33.6340905324       -5.2908748050      -12.9342599678  W2        998             0.0000000000
      2994       998  TIP3      H2            -33.7669405324       -6.4234048050      -13.9300399678  W2        998             0.0000000000
      2995       999  TIP3      OH2           -35.9103205324      -13.3260548050      -14.0945599678  W2        999             0.0000000000
      2996       999  TIP3      H1            -35.9550605324      -12.3867448050      -13.9158599678  W2        999             0.0000000000
      2997       999  TIP3      H2            -36.7980005324      -13.5615648050      -14.3643499678  W2        999             0.0000000000
      2998      1000  TIP3      OH2           -22.5973605324       -2.6621648050       -4.1585999678  W2        1000            0.0000000000
      2999      1000  TIP3      H1            -22.7529305324       -1.9837248050       -4.8156699678  W2        1000            0.0000000000
      3000      1000  TIP3      H2            -21.6647205324       -2.5902348050       -3.9555399678  W2        1000            0.0000000000
      3001      1001  TIP3      OH2           -35.1021205324      -18.5443948050       -5.4214599678  W2        1001            0.0000000000
      3002      1001  TIP3      H1            -35.3311405324      -18.4851448050       -6.3489599678  W2        1001            0.0000000000
      3003      1001  TIP3      H2            -35.5447805324      -19.3358448050       -5.1150499678  W2        1001            0.0000000000
      3004      1002  TIP3      OH2           -36.1717905324       -4.6036848050       -9.2608799678  W2        1002            0.0000000000
      3005      1002  TIP3      H1            -37.0039305324       -4.1314148050       -9.2337399678  W2        1002            0.0000000000
      3006      1002  TIP3      H2            -35.6259605324       -4.0939248050       -9.8595699678  W2        1002            0.0000000000
      3007      1003  TIP3      OH2           -36.8834205324       -1.9913148050        2.0689200322  W2        1003            0.0000000000
      3008      1003  TIP3      H1            -36.3432005324       -2.2079148050        2.8288400322  W2        1003            0.0000000000
      3009      1003  TIP3      H2            -37.3646205324       -2.7967148050        1.8791700322  W2        1003            0.0000000000
      3010      1004  TIP3      OH2           -32.2860805324       -3.0718748050        3.6893400322  W2        1004            0.0000000000
      3011      1004  TIP3      H1            -31.5183605324       -3.5307948050        4.0302600322  W2        1004            0.0000000000
      3012      1004  TIP3      H2            -32.3074605324       -3.2978948050        2.7594600322  W2        1004            0.0000000000
      3013      1005  TIP3      OH2           -28.1941205324       -3.5638148050      -14.9354799678  W2        1005            0.0000000000
      3014      1005  TIP3      H1            -28.8380205324       -4.1949548050      -14.6141099678  W2        1005            0.0000000000
      3015      1005  TIP3      H2            -27.4322905324       -4.0950148050      -15.1671299678  W2        1005            0.0000000000
      3016      1006  TIP3      OH2           -25.7092105324       -4.6917648050        2.4184900322  W2        1006            0.0000000000
      3017      1006  TIP3      H1            -26.0602605324       -5.5484648050        2.6615300322  W2        1006            0.0000000000
      3018      1006  TIP3      H2            -24.9828905324       -4.5490948050        3.0253900322  W2        1006            0.0000000000
      3019      1007  TIP3      OH2           -23.5898305324       -3.7468248050      -14.7016799678  W2        1007            0.0000000000
      3020      1007  TIP3      H1            -23.3067905324       -4.5413048050      -14.2489899678  W2        1007            0.0000000000
      3021      1007  TIP3      H2            -22.8500405324       -3.5137248050      -15.2625699678  W2        1007            0.0000000000
      3022      1008  TIP3      OH2           -36.9764705324       -8.1809048050        3.0233500322  W2        1008            0.0000000000
      3023      1008  TIP3      H1            -36.8324205324       -9.0828348050        2.7370200322  W2        1008            0.0000000000
      3024      1008  TIP3      H2            -37.7487305324       -7.8946948050        2.5355800322  W2        1008            0.0000000000
      3025      1009  TIP3      OH2           -32.6351005324       -7.8373348050      -14.8441899678  W2        1009            0.0000000000
      3026      1009  TIP3      H1            -32.5706905324       -8.6313748050      -14.3135499678  W2        1009            0.0000000000
      3027      1009  TIP3      H2            -31.9821805324       -7.9560548050      -15.5339899678  W2        1009            0.0000000000
      3028      1010  TIP3      OH2           -30.3208605324       -8.2110948050        2.4559900322  W2        1010            0.0000000000
      3029      1010  TIP3      H1            -30.6494805324       -7.9402848050        1.5987300322  W2        1010            0.0000000000
      3030      1010  TIP3      H2            -30.1690405324       -9.1521148050        2.3684900322  W2        1010            0.0000000000
      3031      1011  TIP3      OH2           -27.2827605324       -6.7901648050      -15.1083899678  W2        1011            0.0000000000
      3032      1011  TIP3      H1            -27.5513505324       -6.6099548050      -14.2074999678  W2        1011            0.0000000000
      3033      1011  TIP3      H2            -27.4892005324       -7.7155448050      -15.2398099678  W2        1011            0.0000000000
      3034      1012  TIP3      OH2           -24.5863405324       -8.2953648050       -0.1607799678  W2        1012            0.0000000000
      3035      1012  TIP3      H1            -23.8408605324       -7.7069948050       -0.2803799678  W2        1012            0.0000000000
      3036      1012  TIP3      H2            -25.3436605324       -7.7133948050       -0.0974699678  W2        1012            0.0000000000
      3037      1013  TIP3      OH2           -36.1438205324      -10.9805748050        2.4432800322  W2        1013            0.0000000000
      3038      1013  TIP3      H1            -35.7357005324      -11.8379148050        2.3223400322  W2        1013            0.0000000000
      3039      1013  TIP3      H2            -36.4040605324      -10.9664448050        3.3643100322  W2        1013            0.0000000000
      3040      1014  TIP3      OH2           -31.4857205324       -9.8647148050      -12.5383899678  W2        1014            0.0000000000
      3041      1014  TIP3      H1            -31.9455205324      -10.3488848050      -11.8525399678  W2        1014            0.0000000000
      3042      1014  TIP3      H2            -31.2308505324      -10.5331748050      -13.1743399678  W2        1014            0.0000000000
      3043      1015  TIP3      OH2           -32.1967905324      -11.9720048050       -0.1824299678  W2        1015            0.0000000000
      3044      1015  TIP3      H1            -32.8151805324      -11.2973448050        0.0980400322  W2        1015            0.0000000000
      3045      1015  TIP3      H2            -31.8526705324      -11.6506148050       -1.0158099678  W2        1015            0.0000000000
      3046      1016  TIP3      OH2           -30.4146805324      -11.6215348050      -14.2760699678  W2        1016            0.0000000000
      3047      1016  TIP3      H1            -30.5951805324      -11.7764148050      -15.2032399678  W2        1016            0.0000000000
      3048      1016  TIP3      H2            -29.4646305324      -11.5136648050      -14.2312799678  W2        1016            0.0000000000
      3049      1017  TIP3      OH2           -27.1769705324       -9.5004748050        3.0950500322  W2        1017            0.0000000000
      3050      1017  TIP3      H1            -26.2238505324       -9.4165648050        3.0676500322  W2        1017            0.0000000000
      3051      1017  TIP3      H2            -27.3375105324      -10.2122948050        3.7145400322  W2        1017            0.0000000000
      3052      1018  TIP3      OH2           -21.0248505324       -9.2671148050      -14.8302599678  W2        1018            0.0000000000
      3053      1018  TIP3      H1            -21.2983705324       -9.6915648050      -15.6434299678  W2        1018            0.0000000000
      3054      1018  TIP3      H2            -20.9854405324       -8.3356648050      -15.0472199678  W2        1018            0.0000000000
      3055      1019  TIP3      OH2           -31.8574205324      -14.6169248050        0.8998800322  W2        1019            0.0000000000
      3056      1019  TIP3      H1            -31.7073305324      -15.3457948050        0.2978500322  W2        1019            0.0000000000
      3057      1019  TIP3      H2            -31.8551805324      -13.8397548050        0.3411000322  W2        1019            0.0000000000
      3058      1020  TIP3      OH2           -31.4448505324      -16.2473448050       -1.6073799678  W2        1020            0.0000000000
      3059      1020  TIP3      H1            -30.9091005324      -15.7956748050       -2.2594499678  W2        1020            0.0000000000
      3060      1020  TIP3      H2            -32.2968905324      -16.3553648050       -2.0299699678  W2        1020            0.0000000000
      3061      1021  TIP3      OH2           -29.8630105324      -10.8077248050       -1.3678599678  W2        1021            0.0000000000
      3062      1021  TIP3      H1            -29.1125305324      -10.9639748050       -1.9410799678  W2        1021            0.0000000000
      3063      1021  TIP3      H2            -30.2021805324       -9.9560648050       -1.6433099678  W2        1021            0.0000000000
      3064      1022  TIP3      OH2           -25.4473905324      -12.9925448050        3.6606700322  W2        1022            0.0000000000
      3065      1022  TIP3      H1            -25.2552605324      -13.9236048050        3.5491200322  W2        1022            0.0000000000
      3066      1022  TIP3      H2            -24.5897605324      -12.5675948050        3.6502100322  W2        1022            0.0000000000
      3067      1023  TIP3      OH2           -24.1306705324      -10.2040248050        1.7379400322  W2        1023            0.0000000000
      3068      1023  TIP3      H1            -24.4121705324       -9.4945648050        1.1603200322  W2        1023            0.0000000000
      3069      1023  TIP3      H2            -23.1882405324      -10.2767248050        1.5870600322  W2        1023            0.0000000000
      3070      1024  TIP3      OH2           -33.3787905324      -13.4185748050        2.8114400322  W2        1024            0.0000000000
      3071      1024  TIP3      H1            -34.1458905324      -13.9510948050        2.6012000322  W2        1024            0.0000000000
      3072      1024  TIP3      H2            -32.6998905324      -13.7285348050        2.2120700322  W2        1024            0.0000000000
      3073      1025  TIP3      OH2           -30.6393005324      -18.7907748050       -1.1760199678  W2        1025            0.0000000000
      3074      1025  TIP3      H1            -30.7373405324      -17.8444548050       -1.2813999678  W2        1025            0.0000000000
      3075      1025  TIP3      H2            -31.3816805324      -19.1633948050       -1.6516699678  W2        1025            0.0000000000
      3076      1026  TIP3      OH2           -29.3752505324      -14.4692348050        2.3878200322  W2        1026            0.0000000000
      3077      1026  TIP3      H1            -29.6107105324      -14.6885648050        3.2893100322  W2        1026            0.0000000000
      3078      1026  TIP3      H2            -30.1585605324      -14.6761148050        1.8780700322  W2        1026            0.0000000000
      3079      1027  TIP3      OH2           -26.6595905324      -15.3418848050        1.4631700322  W2        1027            0.0000000000
      3080      1027  TIP3      H1            -27.6070505324      -15.3099148050        1.5955000322  W2        1027            0.0000000000
      3081      1027  TIP3      H2            -26.3469205324      -15.9671748050        2.1169900322  W2        1027            0.0000000000
      3082      1028  TIP3      OH2           -25.0254405324      -16.7077748050        3.4683600322  W2        1028            0.0000000000
      3083      1028  TIP3      H1            -25.1222605324      -17.6600448050        3.4625500322  W2        1028            0.0000000000
      3084      1028  TIP3      H2            -25.3471305324      -16.4390948050        4.3289100322  W2        1028            0.0000000000
      3085      1029  TIP3      OH2           -35.1985105324      -15.4981948050        2.5159100322  W2        1029            0.0000000000
      3086      1029  TIP3      H1            -34.9867705324      -16.2045848050        1.9056600322  W2        1029            0.0000000000
      3087      1029  TIP3      H2            -35.3097605324      -15.9355948050        3.3600300322  W2        1029            0.0000000000
      3088      1030  TIP3      OH2           -30.4174905324      -19.4970348050        1.4952600322  W2        1030            0.0000000000
      3089      1030  TIP3      H1            -29.7056505324      -20.1368148050        1.4811700322  W2        1030            0.0000000000
      3090      1030  TIP3      H2            -30.5184505324      -19.2302048050        0.5815700322  W2        1030            0.0000000000
      3091      1031  TIP3      OH2           -30.0637405324      -17.8141948050        3.5488900322  W2        1031            0.0000000000
      3092      1031  TIP3      H1            -30.1955205324      -18.2898148050        2.7287400322  W2        1031            0.0000000000
      3093      1031  TIP3      H2            -30.6630005324      -17.0698348050        3.4936000322  W2        1031            0.0000000000
      3094      1032  TIP3      OH2           -30.5175105324       -0.9311648050      -13.2747099678  W2        1032            0.0000000000
      3095      1032  TIP3      H1            -29.5844405324       -0.7732948050      -13.1308699678  W2        1032            0.0000000000
      3096      1032  TIP3      H2            -30.7816305324       -0.2558648050      -13.8995599678  W2        1032            0.0000000000
      3097      1033  TIP3      OH2           -36.9490205324       -6.2947848050      -13.7918999678  W2        1033            0.0000000000
      3098      1033  TIP3      H1            -36.0351005324       -6.2158948050      -13.5185099678  W2        1033            0.0000000000
      3099      1033  TIP3      H2            -36.9417105324       -6.9818248050      -14.4583399678  W2        1033            0.0000000000
      3100      1034  TIP3      OH2           -38.2999605324       -0.9019348050       -8.7145099678  W2        1034            0.0000000000
      3101      1034  TIP3      H1            -38.9472505324       -1.3637648050       -9.2473899678  W2        1034            0.0000000000
      3102      1034  TIP3      H2            -37.9455005324       -1.5736048050       -8.1318899678  W2        1034            0.0000000000
      3103      1035  TIP3      OH2           -37.4300405324       -2.8212348050       -6.9098899678  W2        1035            0.0000000000
      3104      1035  TIP3      H1            -37.7643605324       -3.7015048050       -6.7378699678  W2        1035            0.0000000000
      3105      1035  TIP3      H2            -37.2078005324       -2.4757348050       -6.0453299678  W2        1035            0.0000000000
      3106      1036  TIP3      OH2           -19.8815605324       -2.0115948050       -3.9294099678  W2        1036            0.0000000000
      3107      1036  TIP3      H1            -19.9028905324       -1.8267548050       -2.9904699678  W2        1036            0.0000000000
      3108      1036  TIP3      H2            -19.1909405324       -1.4431948050       -4.2702699678  W2        1036            0.0000000000
      3109      1037  TIP3      OH2           -20.3182705324       -2.4444848050       -1.0074999678  W2        1037            0.0000000000
      3110      1037  TIP3      H1            -20.8054005324       -3.1800748050       -1.3787599678  W2        1037            0.0000000000
      3111      1037  TIP3      H2            -19.7690005324       -2.8380948050       -0.3295599678  W2        1037            0.0000000000
      3112      1038  TIP3      OH2           -21.8675405324       -6.6546748050        3.6305300322  W2        1038            0.0000000000
      3113      1038  TIP3      H1            -22.7334305324       -6.7597048050        4.0247600322  W2        1038            0.0000000000
      3114      1038  TIP3      H2            -21.4909505324       -5.8963448050        4.0770000322  W2        1038            0.0000000000
      3115      1039  TIP3      OH2           -20.5665705324       -8.3983048050      -10.8552199678  W2        1039            0.0000000000
      3116      1039  TIP3      H1            -19.7164305324       -7.9772148050      -10.7280599678  W2        1039            0.0000000000
      3117      1039  TIP3      H2            -20.5610605324       -9.1382948050      -10.2480799678  W2        1039            0.0000000000
      3118      1040  TIP3      OH2           -20.1720105324      -10.3445648050       -9.0316499678  W2        1040            0.0000000000
      3119      1040  TIP3      H1            -20.8985505324      -10.8243048050       -8.6338899678  W2        1040            0.0000000000
      3120      1040  TIP3      H2            -19.5906805324      -10.1390948050       -8.2994899678  W2        1040            0.0000000000
      3121      1041  TIP3      OH2           -20.4128905324       -7.5598148050       -4.0838899678  W2        1041            0.0000000000
      3122      1041  TIP3      H1            -19.5794705324       -7.9378148050       -4.3645299678  W2        1041            0.0000000000
      3123      1041  TIP3      H2            -20.3008605324       -6.6166948050       -4.2029799678  W2        1041            0.0000000000
      3124      1042  TIP3      OH2           -21.9266605324       -4.6820648050       -1.7770499678  W2        1042            0.0000000000
      3125      1042  TIP3      H1            -22.5741305324       -4.3569148050       -1.1515299678  W2        1042            0.0000000000
      3126      1042  TIP3      H2            -22.4442605324       -5.1222948050       -2.4512199678  W2        1042            0.0000000000
      3127      1043  TIP3      OH2           -19.9037005324      -10.4437148050      -12.6405199678  W2        1043            0.0000000000
      3128      1043  TIP3      H1            -20.4255905324      -10.0873048050      -13.3594299678  W2        1043            0.0000000000
      3129      1043  TIP3      H2            -19.9367805324       -9.7689348050      -11.9624299678  W2        1043            0.0000000000
      3130      1044  TIP3      OH2           -21.5548005324      -13.2041548050      -14.0898099678  W2        1044            0.0000000000
      3131      1044  TIP3      H1            -21.4583605324      -12.5374548050      -14.7698399678  W2        1044            0.0000000000
      3132      1044  TIP3      H2            -21.6948405324      -14.0195248050      -14.5712599678  W2        1044            0.0000000000
      3133      1045  TIP3      OH2           -22.3853305324      -11.8239148050       -8.4687799678  W2        1045            0.0000000000
      3134      1045  TIP3      H1            -22.5354505324      -12.7690548050       -8.4889999678  W2        1045            0.0000000000
      3135      1045  TIP3      H2            -22.7388805324      -11.5427748050       -7.6248699678  W2        1045            0.0000000000
      3136      1046  TIP3      OH2           -37.3500905324       -9.7456948050       -4.4583999678  W2        1046            0.0000000000
      3137      1046  TIP3      H1            -37.1658005324       -9.8275248050       -5.3941099678  W2        1046            0.0000000000
      3138      1046  TIP3      H2            -36.5008005324       -9.8699948050       -4.0347599678  W2        1046            0.0000000000
      3139      1047  TIP3      OH2           -21.5290405324       -9.8535848050        1.1700500322  W2        1047            0.0000000000
      3140      1047  TIP3      H1            -20.9463105324      -10.5883548050        1.3617700322  W2        1047            0.0000000000
      3141      1047  TIP3      H2            -20.9651105324       -9.0815548050        1.2166300322  W2        1047            0.0000000000
      3142      1048  TIP3      OH2           -20.0323305324      -11.9510048050        1.8545900322  W2        1048            0.0000000000
      3143      1048  TIP3      H1            -20.8956605324      -12.3297948050        1.6890600322  W2        1048            0.0000000000
      3144      1048  TIP3      H2            -19.4279605324      -12.6895248050        1.7801700322  W2        1048            0.0000000000
      3145      1049  TIP3      OH2           -22.3074205324      -15.7961748050      -14.9722599678  W2        1049            0.0000000000
      3146      1049  TIP3      H1            -21.6968405324      -16.1674948050      -14.3354399678  W2        1049            0.0000000000
      3147      1049  TIP3      H2            -23.1442705324      -16.2174848050      -14.7762599678  W2        1049            0.0000000000
      3148      1050  TIP3      OH2           -22.6748505324      -14.2413348050      -10.0062699678  W2        1050            0.0000000000
      3149      1050  TIP3      H1            -22.3951405324      -15.1482948050       -9.8820999678  W2        1050            0.0000000000
      3150      1050  TIP3      H2            -21.9156805324      -13.8071848050      -10.3953499678  W2        1050            0.0000000000
      3151      1051  TIP3      OH2           -22.0630205324      -13.6595948050       -4.5703799678  W2        1051            0.0000000000
      3152      1051  TIP3      H1            -21.1302205324      -13.4476048050       -4.6047799678  W2        1051            0.0000000000
      3153      1051  TIP3      H2            -22.2982705324      -13.5583848050       -3.6480799678  W2        1051            0.0000000000
      3154      1052  TIP3      OH2           -22.0338305324      -12.9230648050       -1.7944399678  W2        1052            0.0000000000
      3155      1052  TIP3      H1            -22.8767005324      -12.6550248050       -1.4284599678  W2        1052            0.0000000000
      3156      1052  TIP3      H2            -21.5914005324      -12.1008748050       -2.0053299678  W2        1052            0.0000000000
      3157      1053  TIP3      OH2           -37.7526105324      -14.4751948050        1.6824800322  W2        1053            0.0000000000
      3158      1053  TIP3      H1            -36.8331205324      -14.5973648050        1.9187900322  W2        1053            0.0000000000
      3159      1053  TIP3      H2            -38.2021605324      -15.2252248050        2.0718300322  W2        1053            0.0000000000
      3160      1054  TIP3      OH2           -19.7506705324      -18.9430448050        3.5590600322  W2        1054            0.0000000000
      3161      1054  TIP3      H1            -19.4009705324      -19.5966948050        2.9535300322  W2        1054            0.0000000000
      3162      1054  TIP3      H2            -19.6037205324      -18.1056348050        3.1193200322  W2        1054            0.0000000000
      3163      1055  TIP3      OH2           -22.0613705324      -16.9784048050       -9.9580699678  W2        1055            0.0000000000
      3164      1055  TIP3      H1            -21.8788705324      -17.4272548050       -9.1325699678  W2        1055            0.0000000000
      3165      1055  TIP3      H2            -22.6610805324      -17.5629648050      -10.4216099678  W2        1055            0.0000000000
      3166      1056  TIP3      OH2           -36.5313605324      -16.1630348050       -5.4262299678  W2        1056            0.0000000000
      3167      1056  TIP3      H1            -36.0862005324      -16.9547848050       -5.1242599678  W2        1056            0.0000000000
      3168      1056  TIP3      H2            -36.0650605324      -15.4465148050       -4.9956699678  W2        1056            0.0000000000
      3169      1057  TIP3      OH2           -38.2273305324      -13.1637348050       -4.3572099678  W2        1057            0.0000000000
      3170      1057  TIP3      H1            -37.7353505324      -13.3846848050       -5.1480099678  W2        1057            0.0000000000
      3171      1057  TIP3      H2            -37.8652405324      -12.3233948050       -4.0762599678  W2        1057            0.0000000000
      3172      1058  TIP3      OH2           -20.2309505324      -16.8335848050        1.9081900322  W2        1058            0.0000000000
      3173      1058  TIP3      H1            -21.1483805324      -16.5628748050        1.8725400322  W2        1058            0.0000000000
      3174      1058  TIP3      H2            -20.1080105324      -17.3687448050        1.1241600322  W2        1058            0.0000000000
      3175      1059  TIP3      OH2           -20.1947505324      -16.9105948050      -13.4300399678  W2        1059            0.0000000000
      3176      1059  TIP3      H1            -19.7824905324      -17.6320248050      -13.9052399678  W2        1059            0.0000000000
      3177      1059  TIP3      H2            -19.5131005324      -16.2411348050      -13.3716099678  W2        1059            0.0000000000
      3178      1060  TIP3      OH2           -37.9136805324      -16.9058248050      -10.3029699678  W2        1060            0.0000000000
      3179      1060  TIP3      H1            -38.8388405324      -16.6971648050      -10.4324199678  W2        1060            0.0000000000
      3180      1060  TIP3      H2            -37.4596905324      -16.4217448050      -10.9927399678  W2        1060            0.0000000000
      3181      1061  TIP3      OH2           -23.1429605324       -1.9216548050       -8.3572299678  W2        1061            0.0000000000
      3182      1061  TIP3      H1            -22.4906705324       -2.2694448050       -8.9653199678  W2        1061            0.0000000000
      3183      1061  TIP3      H2            -22.6325805324       -1.4333348050       -7.7112599678  W2        1061            0.0000000000
      3184      1062  TIP3      OH2           -37.9501405324      -18.1679248050       -1.9587199678  W2        1062            0.0000000000
      3185      1062  TIP3      H1            -38.6150905324      -18.4138948050       -1.3156299678  W2        1062            0.0000000000
      3186      1062  TIP3      H2            -38.3930105324      -17.5458848050       -2.5359199678  W2        1062            0.0000000000
      3187      1063  TIP3      OH2           -35.7582105324       -4.9925148050        2.1858600322  W2        1063            0.0000000000
      3188      1063  TIP3      H1            -36.5789605324       -4.8178648050        1.7253300322  W2        1063            0.0000000000
      3189      1063  TIP3      H2            -36.0104305324       -5.0660448050        3.1063000322  W2        1063            0.0000000000
      3190      1064  TIP3      OH2           -32.8039205324       -4.0183948050       -1.5557399678  W2        1064            0.0000000000
      3191      1064  TIP3      H1            -33.2288105324       -3.2085448050       -1.8382799678  W2        1064            0.0000000000
      3192      1064  TIP3      H2            -31.8996405324       -3.9329848050       -1.8577599678  W2        1064            0.0000000000
      3193      1065  TIP3      OH2           -28.4927805324       -2.6193948050        1.4036300322  W2        1065            0.0000000000
      3194      1065  TIP3      H1            -28.3080305324       -2.9527848050        2.2816600322  W2        1065            0.0000000000
      3195      1065  TIP3      H2            -27.6463305324       -2.3095348050        1.0815500322  W2        1065            0.0000000000
      3196      1066  TIP3      OH2           -26.1477405324       -1.3335048050        0.6477700322  W2        1066            0.0000000000
      3197      1066  TIP3      H1            -25.4708505324       -1.9662748050        0.4076900322  W2        1066            0.0000000000
      3198      1066  TIP3      H2            -25.8258605324       -0.9324548050        1.4551000322  W2        1066            0.0000000000
      3199      1067  TIP3      OH2           -21.2303605324      -18.7439548050       -0.2727299678  W2        1067            0.0000000000
      3200      1067  TIP3      H1            -22.0430105324      -18.4189248050       -0.6602599678  W2        1067            0.0000000000
      3201      1067  TIP3      H2            -20.9975105324      -19.5041048050       -0.8058199678  W2        1067            0.0000000000
      3202      1068  TIP3      OH2           -35.4022505324       -0.7620048050       -1.5082099678  W2        1068            0.0000000000
      3203      1068  TIP3      H1            -36.1226105324       -0.3219048050       -1.9594399678  W2        1068            0.0000000000
      3204      1068  TIP3      H2            -35.7678505324       -1.0125348050       -0.6598099678  W2        1068            0.0000000000
      3205      1069  TIP3      OH2           -32.9349905324       -1.1616148050       -2.4784899678  W2        1069            0.0000000000
      3206      1069  TIP3      H1            -33.7997705324       -1.0897648050       -2.0744799678  W2        1069            0.0000000000
      3207      1069  TIP3      H2            -32.9900905324       -0.6148848050       -3.2622399678  W2        1069            0.0000000000
      3208      1070  TIP3      OH2           -28.2244305324       -1.2737248050       -3.3028899678  W2        1070            0.0000000000
      3209      1070  TIP3      H1            -28.6810305324       -0.7447548050       -3.9570499678  W2        1070            0.0000000000
      3210      1070  TIP3      H2            -28.0616305324       -0.6705848050       -2.5776599678  W2        1070            0.0000000000
      3211      1071  TIP3      OH2           -25.8968005324       -2.3957648050       -2.3578599678  W2        1071            0.0000000000
      3212      1071  TIP3      H1            -26.8014305324       -2.2307448050       -2.6236499678  W2        1071            0.0000000000
      3213      1071  TIP3      H2            -25.4679405324       -1.5425448050       -2.4235199678  W2        1071            0.0000000000
      3214      1072  TIP3      OH2           -23.2926105324       -0.8258548050       -2.0630799678  W2        1072            0.0000000000
      3215      1072  TIP3      H1            -23.4744105324        0.0900351950       -2.2735899678  W2        1072            0.0000000000
      3216      1072  TIP3      H2            -23.1158305324       -1.2361448050       -2.9096199678  W2        1072            0.0000000000
      3217      1073  TIP3      OH2           -35.9874405324       -2.1387548050       -4.5980299678  W2        1073            0.0000000000
      3218      1073  TIP3      H1            -36.0058405324       -2.5642448050       -3.7407999678  W2        1073            0.0000000000
      3219      1073  TIP3      H2            -35.1826505324       -2.4572548050       -5.0068099678  W2        1073            0.0000000000
      3220      1074  TIP3      OH2           -33.8461305324       -3.4288848050       -5.9430399678  W2        1074            0.0000000000
      3221      1074  TIP3      H1            -34.0650605324       -4.3451448050       -5.7734399678  W2        1074            0.0000000000
      3222      1074  TIP3      H2            -33.0219105324       -3.2888448050       -5.4768999678  W2        1074            0.0000000000
      3223      1075  TIP3      OH2           -31.3088805324       -2.9589548050       -5.0942399678  W2        1075            0.0000000000
      3224      1075  TIP3      H1            -31.0963105324       -3.8470548050       -5.3811499678  W2        1075            0.0000000000
      3225      1075  TIP3      H2            -31.2443705324       -2.9931848050       -4.1398399678  W2        1075            0.0000000000
      3226      1076  TIP3      OH2           -27.8005105324      -17.2948948050       -5.9499099678  W2        1076            0.0000000000
      3227      1076  TIP3      H1            -28.4748305324      -17.9243348050       -5.6943299678  W2        1076            0.0000000000
      3228      1076  TIP3      H2            -27.2365905324      -17.7790048050       -6.5531199678  W2        1076            0.0000000000
      3229      1077  TIP3      OH2           -22.6577905324      -19.1874948050       -5.8371999678  W2        1077            0.0000000000
      3230      1077  TIP3      H1            -22.0540305324      -18.6399548050       -6.3390999678  W2        1077            0.0000000000
      3231      1077  TIP3      H2            -23.5275905324      -18.8684548050       -6.0777899678  W2        1077            0.0000000000
      3232      1078  TIP3      OH2           -20.9307505324      -18.0486248050       -7.5041099678  W2        1078            0.0000000000
      3233      1078  TIP3      H1            -20.3190005324      -18.5630548050       -8.0307499678  W2        1078            0.0000000000
      3234      1078  TIP3      H2            -20.5484105324      -17.1714148050       -7.4806699678  W2        1078            0.0000000000
      3235      1079  TIP3      OH2           -35.4737605324      -18.6608648050       -8.1279199678  W2        1079            0.0000000000
      3236      1079  TIP3      H1            -36.2507805324      -18.8953748050       -8.6353299678  W2        1079            0.0000000000
      3237      1079  TIP3      H2            -34.9434005324      -19.4576548050       -8.1191199678  W2        1079            0.0000000000
      3238      1080  TIP3      OH2           -36.6374205324      -18.8630548050      -12.3243099678  W2        1080            0.0000000000
      3239      1080  TIP3      H1            -36.1983505324      -18.2520048050      -12.9159599678  W2        1080            0.0000000000
      3240      1080  TIP3      H2            -37.2711805324      -18.3246448050      -11.8503099678  W2        1080            0.0000000000
      3241      1081  TIP3      OH2           -30.8945005324      -18.7341548050       -8.3146099678  W2        1081            0.0000000000
      3242      1081  TIP3      H1            -30.0201605324      -18.3457248050       -8.3441799678  W2        1081            0.0000000000
      3243      1081  TIP3      H2            -31.0304205324      -18.9493748050       -7.3918899678  W2        1081            0.0000000000
      3244      1082  TIP3      OH2           -25.3376605324      -18.7041748050       -6.6654399678  W2        1082            0.0000000000
      3245      1082  TIP3      H1            -25.2615005324      -18.6090148050       -7.6148399678  W2        1082            0.0000000000
      3246      1082  TIP3      H2            -25.6127405324      -19.6118848050       -6.5365299678  W2        1082            0.0000000000
      3247      1083  TIP3      OH2           -23.9844005324      -18.6783948050      -10.9729399678  W2        1083            0.0000000000
      3248      1083  TIP3      H1            -24.6872905324      -18.0634748050      -11.1827999678  W2        1083            0.0000000000
      3249      1083  TIP3      H2            -24.4292605324      -19.5157248050      -10.8418499678  W2        1083            0.0000000000
      3250      1084  TIP3      OH2           -36.7364705324       -2.9148348050      -11.4267999678  W2        1084            0.0000000000
      3251      1084  TIP3      H1            -37.4214805324       -2.9529448050      -12.0942899678  W2        1084            0.0000000000
      3252      1084  TIP3      H2            -36.7327505324       -2.0020748050      -11.1385899678  W2        1084            0.0000000000
      3253      1085  TIP3      OH2           -34.7765105324      -16.9469048050      -13.8818999678  W2        1085            0.0000000000
      3254      1085  TIP3      H1            -34.2851705324      -17.5766648050      -14.4093499678  W2        1085            0.0000000000
      3255      1085  TIP3      H2            -34.1528805324      -16.6509648050      -13.2187799678  W2        1085            0.0000000000
      3256      1086  TIP3      OH2           -29.7505005324      -16.6537548050      -11.4248499678  W2        1086            0.0000000000
      3257      1086  TIP3      H1            -29.5723705324      -17.3004348050      -10.7419899678  W2        1086            0.0000000000
      3258      1086  TIP3      H2            -29.8038805324      -15.8199848050      -10.9577399678  W2        1086            0.0000000000
      3259      1087  TIP3      OH2           -27.8721205324       -1.7053448050      -13.0291799678  W2        1087            0.0000000000
      3260      1087  TIP3      H1            -27.0061005324       -1.3386048050      -13.2073599678  W2        1087            0.0000000000
      3261      1087  TIP3      H2            -28.1188405324       -2.1445448050      -13.8430999678  W2        1087            0.0000000000
      3262      1088  TIP3      OH2           -21.1631605324       -2.1423148050      -10.3500699678  W2        1088            0.0000000000
      3263      1088  TIP3      H1            -21.3574505324       -2.8901048050      -10.9151099678  W2        1088            0.0000000000
      3264      1088  TIP3      H2            -21.2021505324       -1.3843048050      -10.9332799678  W2        1088            0.0000000000
      3265      1089  TIP3      OH2           -35.5159605324      -18.1466748050        1.3897000322  W2        1089            0.0000000000
      3266      1089  TIP3      H1            -35.8821405324      -18.9124148050        1.8321700322  W2        1089            0.0000000000
      3267      1089  TIP3      H2            -34.6031105324      -18.1176548050        1.6762100322  W2        1089            0.0000000000
      3268      1090  TIP3      OH2           -33.5428805324      -18.7962348050        2.9254100322  W2        1090            0.0000000000
      3269      1090  TIP3      H1            -32.6445205324      -19.0702148050        2.7407500322  W2        1090            0.0000000000
      3270      1090  TIP3      H2            -33.9295705324      -19.5386348050        3.3896700322  W2        1090            0.0000000000
      3271      1091  TIP3      OH2           -34.9183505324       -1.9947548050      -14.4015899678  W2        1091            0.0000000000
      3272      1091  TIP3      H1            -35.1858905324       -1.7084648050      -13.5282799678  W2        1091            0.0000000000
      3273      1091  TIP3      H2            -34.1470905324       -2.5408348050      -14.2493399678  W2        1091            0.0000000000
      3274      1092  TIP3      OH2           -25.1216505324      -19.4637048050        3.1076900322  W2        1092            0.0000000000
      3275      1092  TIP3      H1            -25.0449305324      -19.8896348050        3.9614600322  W2        1092            0.0000000000
      3276      1092  TIP3      H2            -24.2279905324      -19.4502348050        2.7650400322  W2        1092            0.0000000000
      3277      1093  TIP3      OH2           -21.9455405324       -3.3910748050        1.8001100322  W2        1093            0.0000000000
      3278      1093  TIP3      H1            -22.7273505324       -3.5772748050        1.2801700322  W2        1093            0.0000000000
      3279      1093  TIP3      H2            -22.0175505324       -2.4616448050        2.0173600322  W2        1093            0.0000000000
      3280      1094  TIP3      OH2            -7.5395005324       -9.5046348050       -8.1691699678  W2        1094            0.0000000000
      3281      1094  TIP3      H1             -7.4503905324       -8.5608148050       -8.3014599678  W2        1094            0.0000000000
      3282      1094  TIP3      H2             -8.1777405324       -9.7799948050       -8.8272299678  W2        1094            0.0000000000
      3283      1095  TIP3      OH2            -8.6063705324      -10.2495648050       -4.7503499678  W2        1095            0.0000000000
      3284      1095  TIP3      H1             -8.6446205324      -10.8959348050       -4.0453899678  W2        1095            0.0000000000
      3285      1095  TIP3      H2             -8.9287205324      -10.7161248050       -5.5214799678  W2        1095            0.0000000000
      3286      1096  TIP3      OH2           -16.2378705324      -10.6353548050       -3.1573599678  W2        1096            0.0000000000
      3287      1096  TIP3      H1            -16.1966605324      -11.2610248050       -2.4341199678  W2        1096            0.0000000000
      3288      1096  TIP3      H2            -15.5351005324      -10.0114948050       -2.9753199678  W2        1096            0.0000000000
      3289      1097  TIP3      OH2            -4.9003505324       -7.3105248050       -6.4488399678  W2        1097            0.0000000000
      3290      1097  TIP3      H1             -5.3410805324       -8.0309248050       -5.9982799678  W2        1097            0.0000000000
      3291      1097  TIP3      H2             -4.9133805324       -6.5898048050       -5.8190699678  W2        1097            0.0000000000
      3292      1098  TIP3      OH2           -15.3145605324       -6.1854648050       -4.6224499678  W2        1098            0.0000000000
      3293      1098  TIP3      H1            -15.6840405324       -6.9874148050       -4.9920199678  W2        1098            0.0000000000
      3294      1098  TIP3      H2            -14.3734505324       -6.3539748050       -4.5761099678  W2        1098            0.0000000000
      3295      1099  TIP3      OH2           -18.7045105324      -12.5252048050       -9.2295699678  W2        1099            0.0000000000
      3296      1099  TIP3      H1            -19.1521705324      -11.6793348050       -9.2479199678  W2        1099            0.0000000000
      3297      1099  TIP3      H2            -19.2653905324      -13.1047848050       -9.7450599678  W2        1099            0.0000000000
      3298      1100  TIP3      OH2           -17.9939005324      -10.3632448050       -7.1037699678  W2        1100            0.0000000000
      3299      1100  TIP3      H1            -17.7805505324      -11.1330848050       -6.5764699678  W2        1100            0.0000000000
      3300      1100  TIP3      H2            -17.2561405324      -10.2735748050       -7.7070099678  W2        1100            0.0000000000
      3301      1101  TIP3      OH2            -7.7888005324       -2.2063548050       -6.2367999678  W2        1101            0.0000000000
      3302      1101  TIP3      H1             -7.1691605324       -2.8828848050       -6.5098799678  W2        1101            0.0000000000
      3303      1101  TIP3      H2             -7.9970605324       -2.4242748050       -5.3283099678  W2        1101            0.0000000000
      3304      1102  TIP3      OH2           -10.2169305324       -7.8174248050       -4.3442499678  W2        1102            0.0000000000
      3305      1102  TIP3      H1             -9.9131405324       -8.5032848050       -4.9388399678  W2        1102            0.0000000000
      3306      1102  TIP3      H2             -9.4955305324       -7.6985548050       -3.7264499678  W2        1102            0.0000000000
      3307      1103  TIP3      OH2            -1.5539505324      -16.2158948050       -3.4836299678  W2        1103            0.0000000000
      3308      1103  TIP3      H1             -1.5047305324      -15.6057748050       -2.7477199678  W2        1103            0.0000000000
      3309      1103  TIP3      H2             -1.1284405324      -15.7548048050       -4.2065199678  W2        1103            0.0000000000
      3310      1104  TIP3      OH2            -7.0762305324      -13.4231848050       -4.0167699678  W2        1104            0.0000000000
      3311      1104  TIP3      H1             -6.9336405324      -14.3694848050       -3.9966099678  W2        1104            0.0000000000
      3312      1104  TIP3      H2             -7.1823305324      -13.2162048050       -4.9452799678  W2        1104            0.0000000000
      3313      1105  TIP3      OH2           -13.9214005324      -15.3215448050       -6.7442899678  W2        1105            0.0000000000
      3314      1105  TIP3      H1            -13.8782905324      -14.4616948050       -7.1626599678  W2        1105            0.0000000000
      3315      1105  TIP3      H2            -14.3789905324      -15.8740748050       -7.3779699678  W2        1105            0.0000000000
      3316      1106  TIP3      OH2            -6.1991305324      -15.1909848050       -8.3434599678  W2        1106            0.0000000000
      3317      1106  TIP3      H1             -5.5527005324      -15.5196648050       -7.7186999678  W2        1106            0.0000000000
      3318      1106  TIP3      H2             -5.6891905324      -14.6730848050       -8.9663199678  W2        1106            0.0000000000
      3319      1107  TIP3      OH2           -17.3012505324      -12.9249648050       -5.9821499678  W2        1107            0.0000000000
      3320      1107  TIP3      H1            -16.6475905324      -13.4747948050       -5.5501399678  W2        1107            0.0000000000
      3321      1107  TIP3      H2            -17.2773205324      -13.1990648050       -6.8989499678  W2        1107            0.0000000000
      3322      1108  TIP3      OH2           -12.1448005324      -11.3748348050       -6.7669999678  W2        1108            0.0000000000
      3323      1108  TIP3      H1            -11.5287005324      -11.9012948050       -6.2575999678  W2        1108            0.0000000000
      3324      1108  TIP3      H2            -12.7309205324      -12.0149648050       -7.1706399678  W2        1108            0.0000000000
      3325      1109  TIP3      OH2            -1.1624905324      -14.7379748050       -1.2476499678  W2        1109            0.0000000000
      3326      1109  TIP3      H1             -1.8510305324      -14.0799048050       -1.3429899678  W2        1109            0.0000000000
      3327      1109  TIP3      H2             -1.1470305324      -14.9351848050       -0.3111099678  W2        1109            0.0000000000
      3328      1110  TIP3      OH2           -15.1112105324      -16.4037048050       -2.6702099678  W2        1110            0.0000000000
      3329      1110  TIP3      H1            -15.3300405324      -15.8736448050       -3.4366099678  W2        1110            0.0000000000
      3330      1110  TIP3      H2            -15.7791205324      -16.1771548050       -2.0230699678  W2        1110            0.0000000000
      3331      1111  TIP3      OH2            -7.7422305324       -6.9035948050       -9.1262999678  W2        1111            0.0000000000
      3332      1111  TIP3      H1             -8.0377205324       -7.2263648050       -9.9776099678  W2        1111            0.0000000000
      3333      1111  TIP3      H2             -8.0664505324       -6.0039248050       -9.0850399678  W2        1111            0.0000000000
      3334      1112  TIP3      OH2           -12.5420705324       -8.7281348050       -2.3828399678  W2        1112            0.0000000000
      3335      1112  TIP3      H1            -13.2821605324       -8.1299848050       -2.2793199678  W2        1112            0.0000000000
      3336      1112  TIP3      H2            -11.8281205324       -8.1741748050       -2.6984799678  W2        1112            0.0000000000
      3337      1113  TIP3      OH2            -4.4352905324      -15.9000548050       -6.3628699678  W2        1113            0.0000000000
      3338      1113  TIP3      H1             -4.6504905324      -16.6657148050       -5.8302699678  W2        1113            0.0000000000
      3339      1113  TIP3      H2             -3.7795505324      -15.4275948050       -5.8500199678  W2        1113            0.0000000000
      3340      1114  TIP3      OH2           -15.5174805324      -14.5115248050       -4.7179899678  W2        1114            0.0000000000
      3341      1114  TIP3      H1            -14.9038505324      -13.8787648050       -4.3447499678  W2        1114            0.0000000000
      3342      1114  TIP3      H2            -15.0054105324      -14.9840248050       -5.3742999678  W2        1114            0.0000000000
      3343      1115  TIP3      OH2           -14.1346405324       -6.7638348050       -1.5956899678  W2        1115            0.0000000000
      3344      1115  TIP3      H1            -14.1398805324       -5.8844848050       -1.9737599678  W2        1115            0.0000000000
      3345      1115  TIP3      H2            -14.9882305324       -6.8474248050       -1.1706999678  W2        1115            0.0000000000
      3346      1116  TIP3      OH2           -18.0135505324       -7.0930448050      -10.8137599678  W2        1116            0.0000000000
      3347      1116  TIP3      H1            -18.2854605324       -6.8639448050      -11.7024699678  W2        1116            0.0000000000
      3348      1116  TIP3      H2            -17.9679805324       -6.2551648050      -10.3532299678  W2        1116            0.0000000000
      3349      1117  TIP3      OH2            -4.3885805324       -5.4714548050       -4.1009099678  W2        1117            0.0000000000
      3350      1117  TIP3      H1             -5.3302105324       -5.4130648050       -3.9392199678  W2        1117            0.0000000000
      3351      1117  TIP3      H2             -4.1119705324       -4.5654048050       -4.2379399678  W2        1117            0.0000000000
      3352      1118  TIP3      OH2            -4.0878805324      -17.1849248050       -2.6835199678  W2        1118            0.0000000000
      3353      1118  TIP3      H1             -4.8239605324      -16.5742148050       -2.7213899678  W2        1118            0.0000000000
      3354      1118  TIP3      H2             -3.4044805324      -16.7700248050       -3.2098799678  W2        1118            0.0000000000
      3355      1119  TIP3      OH2           -11.0847405324      -19.0981948050       -5.2177199678  W2        1119            0.0000000000
      3356      1119  TIP3      H1            -11.2023205324      -20.0465948050       -5.2718899678  W2        1119            0.0000000000
      3357      1119  TIP3      H2            -11.9397305324      -18.7655848050       -4.9446099678  W2        1119            0.0000000000
      3358      1120  TIP3      OH2            -6.1364605324       -3.6901048050       -7.4757499678  W2        1120            0.0000000000
      3359      1120  TIP3      H1             -5.7112305324       -4.3973148050       -7.9607899678  W2        1120            0.0000000000
      3360      1120  TIP3      H2             -5.8194605324       -2.8888348050       -7.8925299678  W2        1120            0.0000000000
      3361      1121  TIP3      OH2            -4.9768105324       -5.7892548050       -8.9670899678  W2        1121            0.0000000000
      3362      1121  TIP3      H1             -5.2343305324       -6.4792448050       -9.5784999678  W2        1121            0.0000000000
      3363      1121  TIP3      H2             -4.9057305324       -6.2321348050       -8.1214999678  W2        1121            0.0000000000
      3364      1122  TIP3      OH2            -3.2907905324       -7.2225848050       -0.4897399678  W2        1122            0.0000000000
      3365      1122  TIP3      H1             -3.1511605324       -7.8143348050       -1.2290399678  W2        1122            0.0000000000
      3366      1122  TIP3      H2             -3.1235105324       -6.3499948050       -0.8458599678  W2        1122            0.0000000000
      3367      1123  TIP3      OH2            -8.8182505324      -10.2606348050      -10.7171399678  W2        1123            0.0000000000
      3368      1123  TIP3      H1             -9.5297005324       -9.7256648050      -11.0690899678  W2        1123            0.0000000000
      3369      1123  TIP3      H2             -8.1272905324      -10.2054248050      -11.3772499678  W2        1123            0.0000000000
      3370      1124  TIP3      OH2            -8.7643305324      -11.8032048050      -13.6786399678  W2        1124            0.0000000000
      3371      1124  TIP3      H1             -8.0633405324      -11.7805148050      -13.0272399678  W2        1124            0.0000000000
      3372      1124  TIP3      H2             -8.4620405324      -12.4312348050      -14.3347099678  W2        1124            0.0000000000
      3373      1125  TIP3      OH2            -1.4488605324      -10.8827848050       -2.4236999678  W2        1125            0.0000000000
      3374      1125  TIP3      H1             -2.1014505324      -10.1882248050       -2.3346099678  W2        1125            0.0000000000
      3375      1125  TIP3      H2             -0.9838305324      -10.6726948050       -3.2335399678  W2        1125            0.0000000000
      3376      1126  TIP3      OH2            -5.4124805324      -10.0513048050       -9.7655499678  W2        1126            0.0000000000
      3377      1126  TIP3      H1             -6.1443805324       -9.8229348050       -9.1924899678  W2        1126            0.0000000000
      3378      1126  TIP3      H2             -4.9652605324      -10.7650348050       -9.3107999678  W2        1126            0.0000000000
      3379      1127  TIP3      OH2            -5.5151305324      -11.8770448050       -0.6978499678  W2        1127            0.0000000000
      3380      1127  TIP3      H1             -5.4352205324      -11.1136048050       -0.1259999678  W2        1127            0.0000000000
      3381      1127  TIP3      H2             -6.1163605324      -11.5978048050       -1.3883399678  W2        1127            0.0000000000
      3382      1128  TIP3      OH2           -13.7671105324       -9.4206848050       -7.8830499678  W2        1128            0.0000000000
      3383      1128  TIP3      H1            -14.0975905324       -9.7913448050       -8.7013499678  W2        1128            0.0000000000
      3384      1128  TIP3      H2            -13.1787005324      -10.0912848050       -7.5362199678  W2        1128            0.0000000000
      3385      1129  TIP3      OH2           -12.4003605324       -5.9926248050       -5.2018299678  W2        1129            0.0000000000
      3386      1129  TIP3      H1            -12.4952305324       -6.5713148050       -5.9583699678  W2        1129            0.0000000000
      3387      1129  TIP3      H2            -11.6710005324       -6.3640548050       -4.7055499678  W2        1129            0.0000000000
      3388      1130  TIP3      OH2           -13.4005605324      -10.6521248050       -4.2495499678  W2        1130            0.0000000000
      3389      1130  TIP3      H1            -12.8353105324      -10.5307048050       -5.0124299678  W2        1130            0.0000000000
      3390      1130  TIP3      H2            -13.0816705324      -10.0146248050       -3.6106999678  W2        1130            0.0000000000
      3391      1131  TIP3      OH2            -7.0913405324       -5.1489348050       -3.5154999678  W2        1131            0.0000000000
      3392      1131  TIP3      H1             -7.3316805324       -4.4866248050       -2.8675799678  W2        1131            0.0000000000
      3393      1131  TIP3      H2             -7.2895205324       -5.9834148050       -3.0905399678  W2        1131            0.0000000000
      3394      1132  TIP3      OH2           -12.5204905324       -6.2528548050        0.4676400322  W2        1132            0.0000000000
      3395      1132  TIP3      H1            -12.8317405324       -5.4705348050        0.9229600322  W2        1132            0.0000000000
      3396      1132  TIP3      H2            -13.1704705324       -6.4059448050       -0.2181599678  W2        1132            0.0000000000
      3397      1133  TIP3      OH2            -6.5415305324      -10.8890148050      -12.0804299678  W2        1133            0.0000000000
      3398      1133  TIP3      H1             -5.9619805324      -10.7389848050      -11.3335399678  W2        1133            0.0000000000
      3399      1133  TIP3      H2             -6.1275305324      -10.4182748050      -12.8037899678  W2        1133            0.0000000000
      3400      1134  TIP3      OH2           -15.6005005324      -10.0547448050       -0.3037899678  W2        1134            0.0000000000
      3401      1134  TIP3      H1            -15.5301805324       -9.4040648050        0.3947100322  W2        1134            0.0000000000
      3402      1134  TIP3      H2            -16.4912805324       -9.9519948050       -0.6386999678  W2        1134            0.0000000000
      3403      1135  TIP3      OH2            -8.8150405324       -4.1521648050       -8.6451199678  W2        1135            0.0000000000
      3404      1135  TIP3      H1             -8.3412805324       -3.8565348050       -7.8676999678  W2        1135            0.0000000000
      3405      1135  TIP3      H2             -9.3781105324       -3.4140048050       -8.8781599678  W2        1135            0.0000000000
      3406      1136  TIP3      OH2           -14.2809005324       -4.1813548050        1.2310200322  W2        1136            0.0000000000
      3407      1136  TIP3      H1            -14.2733705324       -4.3173848050        0.2835700322  W2        1136            0.0000000000
      3408      1136  TIP3      H2            -15.1968605324       -4.2985448050        1.4830200322  W2        1136            0.0000000000
      3409      1137  TIP3      OH2            -2.8426905324      -19.1389748050      -12.2674599678  W2        1137            0.0000000000
      3410      1137  TIP3      H1             -3.7426205324      -19.0000748050      -11.9723999678  W2        1137            0.0000000000
      3411      1137  TIP3      H2             -2.5908505324      -18.3075148050      -12.6692899678  W2        1137            0.0000000000
      3412      1138  TIP3      OH2           -14.7768405324      -10.3512548050      -10.2937699678  W2        1138            0.0000000000
      3413      1138  TIP3      H1            -15.0687105324       -9.5830848050      -10.7846399678  W2        1138            0.0000000000
      3414      1138  TIP3      H2            -15.4513205324      -11.0106348050      -10.4566299678  W2        1138            0.0000000000
      3415      1139  TIP3      OH2            -1.6535505324       -4.7727348050      -13.8910699678  W2        1139            0.0000000000
      3416      1139  TIP3      H1             -1.5802005324       -3.8337148050      -13.7205399678  W2        1139            0.0000000000
      3417      1139  TIP3      H2             -0.7480405324       -5.0778748050      -13.9473399678  W2        1139            0.0000000000
      3418      1140  TIP3      OH2           -18.6838305324       -7.9883348050       -1.4787899678  W2        1140            0.0000000000
      3419      1140  TIP3      H1            -19.1849905324       -8.0163948050       -2.2938199678  W2        1140            0.0000000000
      3420      1140  TIP3      H2            -18.6784605324       -8.8940148050       -1.1690599678  W2        1140            0.0000000000
      3421      1141  TIP3      OH2           -18.9335605324       -5.2079548050       -4.5947699678  W2        1141            0.0000000000
      3422      1141  TIP3      H1            -17.9875005324       -5.3522548050       -4.6138199678  W2        1141            0.0000000000
      3423      1141  TIP3      H2            -19.0459305324       -4.4236748050       -4.0576499678  W2        1141            0.0000000000
      3424      1142  TIP3      OH2            -0.7357105324       -4.5419848050        1.0876000322  W2        1142            0.0000000000
      3425      1142  TIP3      H1             -0.7850305324       -5.4971748050        1.0503600322  W2        1142            0.0000000000
      3426      1142  TIP3      H2             -1.5624805324       -4.2744548050        1.4889800322  W2        1142            0.0000000000
      3427      1143  TIP3      OH2            -9.7573105324       -4.9680648050       -0.0362599678  W2        1143            0.0000000000
      3428      1143  TIP3      H1             -9.6698505324       -4.1416048050        0.4386500322  W2        1143            0.0000000000
      3429      1143  TIP3      H2            -10.6208005324       -5.2976848050        0.2126700322  W2        1143            0.0000000000
      3430      1144  TIP3      OH2            -9.3427305324       -1.1956948050      -10.2301999678  W2        1144            0.0000000000
      3431      1144  TIP3      H1             -9.4181305324       -1.3169748050      -11.1766799678  W2        1144            0.0000000000
      3432      1144  TIP3      H2             -9.3098605324       -0.2464248050      -10.1117399678  W2        1144            0.0000000000
      3433      1145  TIP3      OH2           -15.6893505324       -2.4069948050       -8.4492999678  W2        1145            0.0000000000
      3434      1145  TIP3      H1            -15.5373105324       -2.7549548050       -7.5706499678  W2        1145            0.0000000000
      3435      1145  TIP3      H2            -16.5403105324       -2.7632648050       -8.7045799678  W2        1145            0.0000000000
      3436      1146  TIP3      OH2            -6.2411305324       -2.0416748050      -13.2279599678  W2        1146            0.0000000000
      3437      1146  TIP3      H1             -5.8662905324       -2.7860648050      -13.6986999678  W2        1146            0.0000000000
      3438      1146  TIP3      H2             -6.2367605324       -2.3116148050      -12.3096299678  W2        1146            0.0000000000
      3439      1147  TIP3      OH2            -6.5723205324       -2.1159648050      -10.4787399678  W2        1147            0.0000000000
      3440      1147  TIP3      H1             -7.5073405324       -2.0157748050      -10.3000399678  W2        1147            0.0000000000
      3441      1147  TIP3      H2             -6.2921305324       -2.8253648050       -9.9004199678  W2        1147            0.0000000000
      3442      1148  TIP3      OH2            -3.5837305324      -13.0487348050        1.5678200322  W2        1148            0.0000000000
      3443      1148  TIP3      H1             -3.9910505324      -12.5681748050        0.8471500322  W2        1148            0.0000000000
      3444      1148  TIP3      H2             -3.5431605324      -13.9541348050        1.2599000322  W2        1148            0.0000000000
      3445      1149  TIP3      OH2           -16.4347805324       -6.6647948050       -0.4355099678  W2        1149            0.0000000000
      3446      1149  TIP3      H1            -16.2186505324       -7.0262348050        0.4240700322  W2        1149            0.0000000000
      3447      1149  TIP3      H2            -17.2903105324       -7.0394148050       -0.6451599678  W2        1149            0.0000000000
      3448      1150  TIP3      OH2           -13.8159805324      -18.1947448050       -4.4400899678  W2        1150            0.0000000000
      3449      1150  TIP3      H1            -14.6776105324      -18.2819248050       -4.8477999678  W2        1150            0.0000000000
      3450      1150  TIP3      H2            -13.8384105324      -17.3387348050       -4.0123299678  W2        1150            0.0000000000
      3451      1151  TIP3      OH2            -9.1532005324      -18.4727048050       -1.0653899678  W2        1151            0.0000000000
      3452      1151  TIP3      H1             -8.7328905324      -18.8879948050       -0.3123299678  W2        1151            0.0000000000
      3453      1151  TIP3      H2            -10.0862405324      -18.6513748050       -0.9481899678  W2        1151            0.0000000000
      3454      1152  TIP3      OH2            -5.8267105324      -14.7171848050       -0.2119399678  W2        1152            0.0000000000
      3455      1152  TIP3      H1             -6.3407605324      -14.8429648050        0.5856600322  W2        1152            0.0000000000
      3456      1152  TIP3      H2             -5.9822405324      -13.8048748050       -0.4563199678  W2        1152            0.0000000000
      3457      1153  TIP3      OH2            -5.0642205324       -9.8561848050      -14.4506399678  W2        1153            0.0000000000
      3458      1153  TIP3      H1             -5.0221405324      -10.0787948050      -15.3806399678  W2        1153            0.0000000000
      3459      1153  TIP3      H2             -4.2150105324       -9.4574748050      -14.2606499678  W2        1153            0.0000000000
      3460      1154  TIP3      OH2            -9.4914705324      -15.9803648050      -13.7803099678  W2        1154            0.0000000000
      3461      1154  TIP3      H1             -9.7449905324      -15.9612048050      -12.8574999678  W2        1154            0.0000000000
      3462      1154  TIP3      H2             -9.7482605324      -16.8518248050      -14.0816899678  W2        1154            0.0000000000
      3463      1155  TIP3      OH2           -13.7249705324      -13.2292948050       -3.3450699678  W2        1155            0.0000000000
      3464      1155  TIP3      H1            -14.3667605324      -13.2695648050       -2.6360599678  W2        1155            0.0000000000
      3465      1155  TIP3      H2            -13.6877705324      -12.3028248050       -3.5827699678  W2        1155            0.0000000000
      3466      1156  TIP3      OH2           -13.7280605324      -13.0082848050       -8.4330699678  W2        1156            0.0000000000
      3467      1156  TIP3      H1            -14.6207705324      -13.3486748050       -8.4916899678  W2        1156            0.0000000000
      3468      1156  TIP3      H2            -13.2774005324      -13.3851948050       -9.1887499678  W2        1156            0.0000000000
      3469      1157  TIP3      OH2            -8.1925105324      -12.5922548050       -9.6159899678  W2        1157            0.0000000000
      3470      1157  TIP3      H1             -8.6014805324      -11.7773948050       -9.9075099678  W2        1157            0.0000000000
      3471      1157  TIP3      H2             -7.4718905324      -12.7322448050      -10.2302799678  W2        1157            0.0000000000
      3472      1158  TIP3      OH2            -9.0903505324      -12.4166148050        1.8720800322  W2        1158            0.0000000000
      3473      1158  TIP3      H1             -9.6529705324      -13.1214548050        2.1928600322  W2        1158            0.0000000000
      3474      1158  TIP3      H2             -8.2640105324      -12.5374248050        2.3398400322  W2        1158            0.0000000000
      3475      1159  TIP3      OH2            -7.1877405324      -13.1462148050       -6.8020199678  W2        1159            0.0000000000
      3476      1159  TIP3      H1             -7.3832905324      -12.5405348050       -7.5169599678  W2        1159            0.0000000000
      3477      1159  TIP3      H2             -7.0064805324      -13.9796948050       -7.2363899678  W2        1159            0.0000000000
      3478      1160  TIP3      OH2           -15.9749205324      -12.9089448050       -1.4778699678  W2        1160            0.0000000000
      3479      1160  TIP3      H1            -16.0129805324      -12.5087848050       -0.6091599678  W2        1160            0.0000000000
      3480      1160  TIP3      H2            -16.4658105324      -13.7257048050       -1.3875799678  W2        1160            0.0000000000
      3481      1161  TIP3      OH2           -12.6091805324      -15.5347148050      -14.6792699678  W2        1161            0.0000000000
      3482      1161  TIP3      H1            -13.0401105324      -15.9797048050      -13.9495299678  W2        1161            0.0000000000
      3483      1161  TIP3      H2            -13.3273105324      -15.1630848050      -15.1915199678  W2        1161            0.0000000000
      3484      1162  TIP3      OH2           -19.3668405324      -15.7927648050       -7.6273999678  W2        1162            0.0000000000
      3485      1162  TIP3      H1            -18.7360705324      -15.8215548050       -6.9080099678  W2        1162            0.0000000000
      3486      1162  TIP3      H2            -18.9174105324      -16.2178948050       -8.3578099678  W2        1162            0.0000000000
      3487      1163  TIP3      OH2           -18.0926305324      -15.0465648050      -12.2033599678  W2        1163            0.0000000000
      3488      1163  TIP3      H1            -17.6184605324      -14.4555748050      -12.7882699678  W2        1163            0.0000000000
      3489      1163  TIP3      H2            -18.8099905324      -14.5162748050      -11.8563499678  W2        1163            0.0000000000
      3490      1164  TIP3      OH2            -7.9238205324      -11.5080848050       -2.1307799678  W2        1164            0.0000000000
      3491      1164  TIP3      H1             -7.6003405324      -12.1391148050       -2.7737299678  W2        1164            0.0000000000
      3492      1164  TIP3      H2             -8.3638905324      -12.0428648050       -1.4700399678  W2        1164            0.0000000000
      3493      1165  TIP3      OH2           -11.1465305324      -15.5805348050       -7.3466599678  W2        1165            0.0000000000
      3494      1165  TIP3      H1            -12.0574205324      -15.5238548050       -7.0580599678  W2        1165            0.0000000000
      3495      1165  TIP3      H2            -10.6412405324      -15.6409848050       -6.5359399678  W2        1165            0.0000000000
      3496      1166  TIP3      OH2           -16.3181905324      -13.9519048050       -8.5198999678  W2        1166            0.0000000000
      3497      1166  TIP3      H1            -17.2073905324      -13.8523548050       -8.8599399678  W2        1166            0.0000000000
      3498      1166  TIP3      H2            -16.0217005324      -14.7936048050       -8.8661099678  W2        1166            0.0000000000
      3499      1167  TIP3      OH2           -12.6650105324      -13.9516448050      -10.8634399678  W2        1167            0.0000000000
      3500      1167  TIP3      H1            -11.7334605324      -13.8226448050      -10.6851299678  W2        1167            0.0000000000
      3501      1167  TIP3      H2            -12.8799805324      -13.2822148050      -11.5129699678  W2        1167            0.0000000000
      3502      1168  TIP3      OH2            -6.7413405324      -16.3459048050       -4.0824799678  W2        1168            0.0000000000
      3503      1168  TIP3      H1             -7.4181805324      -16.2145948050       -3.4185099678  W2        1168            0.0000000000
      3504      1168  TIP3      H2             -7.2268505324      -16.5009548050       -4.8927099678  W2        1168            0.0000000000
      3505      1169  TIP3      OH2           -13.9909905324      -12.7574248050      -13.2968299678  W2        1169            0.0000000000
      3506      1169  TIP3      H1            -14.5334805324      -13.1370448050      -13.9880699678  W2        1169            0.0000000000
      3507      1169  TIP3      H2            -13.1575005324      -12.5629548050      -13.7254199678  W2        1169            0.0000000000
      3508      1170  TIP3      OH2            -3.4538305324       -0.6743648050        2.1942800322  W2        1170            0.0000000000
      3509      1170  TIP3      H1             -3.2539605324       -0.2501748050        1.3598100322  W2        1170            0.0000000000
      3510      1170  TIP3      H2             -2.7984605324       -0.3305448050        2.8013200322  W2        1170            0.0000000000
      3511      1171  TIP3      OH2           -15.8558505324       -8.2002348050        1.8023300322  W2        1171            0.0000000000
      3512      1171  TIP3      H1            -15.1236105324       -7.9456448050        2.3637800322  W2        1171            0.0000000000
      3513      1171  TIP3      H2            -16.6359805324       -7.9956948050        2.3178700322  W2        1171            0.0000000000
      3514      1172  TIP3      OH2            -9.8265605324      -12.7932348050       -5.4596999678  W2        1172            0.0000000000
      3515      1172  TIP3      H1             -9.2622205324      -13.3395748050       -6.0067399678  W2        1172            0.0000000000
      3516      1172  TIP3      H2             -9.9742205324      -13.3150448050       -4.6709399678  W2        1172            0.0000000000
      3517      1173  TIP3      OH2           -14.8245905324      -16.6566248050       -9.0412199678  W2        1173            0.0000000000
      3518      1173  TIP3      H1            -15.1416405324      -17.5590948050       -9.0766799678  W2        1173            0.0000000000
      3519      1173  TIP3      H2            -14.0431805324      -16.6548848050       -9.5940599678  W2        1173            0.0000000000
      3520      1174  TIP3      OH2           -11.1999705324      -14.4046248050       -3.0456599678  W2        1174            0.0000000000
      3521      1174  TIP3      H1            -12.0354405324      -13.9506748050       -2.9354199678  W2        1174            0.0000000000
      3522      1174  TIP3      H2            -10.6759105324      -14.1287748050       -2.2936699678  W2        1174            0.0000000000
      3523      1175  TIP3      OH2           -10.6557105324       -8.1918548050      -11.3610199678  W2        1175            0.0000000000
      3524      1175  TIP3      H1            -11.4006105324       -8.6993248050      -11.6832299678  W2        1175            0.0000000000
      3525      1175  TIP3      H2            -10.7899905324       -8.1430548050      -10.4145399678  W2        1175            0.0000000000
      3526      1176  TIP3      OH2            -3.5058205324       -9.0590348050       -2.5742599678  W2        1176            0.0000000000
      3527      1176  TIP3      H1             -2.8639405324       -8.6024048050       -3.1180399678  W2        1176            0.0000000000
      3528      1176  TIP3      H2             -4.3361305324       -8.9457948050       -3.0368499678  W2        1176            0.0000000000
      3529      1177  TIP3      OH2            -6.7580305324      -15.3778648050      -13.1617599678  W2        1177            0.0000000000
      3530      1177  TIP3      H1             -7.6966105324      -15.2663048050      -13.3128799678  W2        1177            0.0000000000
      3531      1177  TIP3      H2             -6.4608205324      -14.5211748050      -12.8551899678  W2        1177            0.0000000000
      3532      1178  TIP3      OH2            -9.1365005324       -8.0075248050       -0.1241099678  W2        1178            0.0000000000
      3533      1178  TIP3      H1             -9.4818905324       -8.3892848050        0.6828500322  W2        1178            0.0000000000
      3534      1178  TIP3      H2             -9.3364905324       -7.0741648050       -0.0528199678  W2        1178            0.0000000000
      3535      1179  TIP3      OH2            -6.0396805324      -13.5105948050      -11.5010199678  W2        1179            0.0000000000
      3536      1179  TIP3      H1             -5.1477805324      -13.6480948050      -11.1818999678  W2        1179            0.0000000000
      3537      1179  TIP3      H2             -5.9833205324      -12.7199848050      -12.0376699678  W2        1179            0.0000000000
      3538      1180  TIP3      OH2           -15.5308805324       -8.8968548050       -5.5912299678  W2        1180            0.0000000000
      3539      1180  TIP3      H1            -14.7861605324       -8.8992848050       -6.1925799678  W2        1180            0.0000000000
      3540      1180  TIP3      H2            -15.4532205324       -9.7204748050       -5.1097199678  W2        1180            0.0000000000
      3541      1181  TIP3      OH2            -8.5303005324       -6.7334248050      -12.3355599678  W2        1181            0.0000000000
      3542      1181  TIP3      H1             -8.8254605324       -5.9066348050      -11.9540799678  W2        1181            0.0000000000
      3543      1181  TIP3      H2             -9.2333005324       -7.3527348050      -12.1394199678  W2        1181            0.0000000000
      3544      1182  TIP3      OH2           -18.5229105324      -10.4361648050       -0.2763799678  W2        1182            0.0000000000
      3545      1182  TIP3      H1            -18.3000505324      -10.8542048050        0.5553700322  W2        1182            0.0000000000
      3546      1182  TIP3      H2            -19.1249005324      -11.0486648050       -0.6990999678  W2        1182            0.0000000000
      3547      1183  TIP3      OH2           -11.5064205324      -10.9191748050        1.9365900322  W2        1183            0.0000000000
      3548      1183  TIP3      H1            -11.8023405324      -11.0848748050        1.0415000322  W2        1183            0.0000000000
      3549      1183  TIP3      H2            -10.5749005324      -11.1391448050        1.9259800322  W2        1183            0.0000000000
      3550      1184  TIP3      OH2            -6.8861405324       -5.5459748050       -0.1736099678  W2        1184            0.0000000000
      3551      1184  TIP3      H1             -7.7867105324       -5.3627148050       -0.4412199678  W2        1184            0.0000000000
      3552      1184  TIP3      H2             -6.8520305324       -5.2870448050        0.7472700322  W2        1184            0.0000000000
      3553      1185  TIP3      OH2            -1.1548105324      -13.3011848050      -11.8063499678  W2        1185            0.0000000000
      3554      1185  TIP3      H1             -1.7091805324      -13.6973848050      -12.4785999678  W2        1185            0.0000000000
      3555      1185  TIP3      H2             -1.0544505324      -12.3906648050      -12.0840199678  W2        1185            0.0000000000
      3556      1186  TIP3      OH2            -1.1916105324       -7.5010148050        1.0308000322  W2        1186            0.0000000000
      3557      1186  TIP3      H1             -2.0427605324       -7.2626348050        0.6634400322  W2        1186            0.0000000000
      3558      1186  TIP3      H2             -0.6012705324       -7.5176948050        0.2775100322  W2        1186            0.0000000000
      3559      1187  TIP3      OH2            -2.8596405324       -4.5151448050      -11.3411399678  W2        1187            0.0000000000
      3560      1187  TIP3      H1             -3.2325305324       -5.3407648050      -11.0320799678  W2        1187            0.0000000000
      3561      1187  TIP3      H2             -2.5822905324       -4.6982048050      -12.2387999678  W2        1187            0.0000000000
      3562      1188  TIP3      OH2            -5.6992505324       -9.7071948050       -4.3199499678  W2        1188            0.0000000000
      3563      1188  TIP3      H1             -6.6275605324       -9.9390048050       -4.3470199678  W2        1188            0.0000000000
      3564      1188  TIP3      H2             -5.2481405324      -10.4842148050       -4.6500699678  W2        1188            0.0000000000
      3565      1189  TIP3      OH2           -13.1559405324       -5.3790348050       -8.1870799678  W2        1189            0.0000000000
      3566      1189  TIP3      H1            -12.6287205324       -4.6055948050       -8.3871999678  W2        1189            0.0000000000
      3567      1189  TIP3      H2            -14.0360905324       -5.1541148050       -8.4886799678  W2        1189            0.0000000000
      3568      1190  TIP3      OH2           -17.4011705324      -10.5166248050      -13.5998399678  W2        1190            0.0000000000
      3569      1190  TIP3      H1            -16.7851805324       -9.8899048050      -13.2203599678  W2        1190            0.0000000000
      3570      1190  TIP3      H2            -18.2629105324      -10.2006448050      -13.3281899678  W2        1190            0.0000000000
      3571      1191  TIP3      OH2           -11.7287105324       -7.7160448050       -8.6106499678  W2        1191            0.0000000000
      3572      1191  TIP3      H1            -11.9697105324       -6.7906048050       -8.5691199678  W2        1191            0.0000000000
      3573      1191  TIP3      H2            -12.4693505324       -8.1749148050       -8.2142599678  W2        1191            0.0000000000
      3574      1192  TIP3      OH2           -11.2140505324       -3.5666848050       -2.2955399678  W2        1192            0.0000000000
      3575      1192  TIP3      H1            -10.8515805324       -2.7121248050       -2.5290999678  W2        1192            0.0000000000
      3576      1192  TIP3      H2            -10.6825305324       -3.8585248050       -1.5549099678  W2        1192            0.0000000000
      3577      1193  TIP3      OH2           -13.0456305324       -2.6942848050       -9.0654299678  W2        1193            0.0000000000
      3578      1193  TIP3      H1            -13.9955805324       -2.5885448050       -9.0140999678  W2        1193            0.0000000000
      3579      1193  TIP3      H2            -12.6938205324       -1.8735448050       -8.7206799678  W2        1193            0.0000000000
      3580      1194  TIP3      OH2            -7.6699705324       -7.4676148050       -2.5949799678  W2        1194            0.0000000000
      3581      1194  TIP3      H1             -8.0958405324       -7.6954448050       -1.7685799678  W2        1194            0.0000000000
      3582      1194  TIP3      H2             -7.0893905324       -8.2064348050       -2.7774499678  W2        1194            0.0000000000
      3583      1195  TIP3      OH2            -5.4670805324       -6.5385648050      -13.5210799678  W2        1195            0.0000000000
      3584      1195  TIP3      H1             -5.1137705324       -6.9185848050      -12.7167299678  W2        1195            0.0000000000
      3585      1195  TIP3      H2             -6.4157305324       -6.6320848050      -13.4341499678  W2        1195            0.0000000000
      3586      1196  TIP3      OH2            -5.0115505324       -2.9156648050       -0.1254999678  W2        1196            0.0000000000
      3587      1196  TIP3      H1             -5.6132305324       -3.4713748050       -0.6208699678  W2        1196            0.0000000000
      3588      1196  TIP3      H2             -4.7301805324       -2.2486848050       -0.7517599678  W2        1196            0.0000000000
      3589      1197  TIP3      OH2            -0.9636405324       -2.0593148050      -13.3200599678  W2        1197            0.0000000000
      3590      1197  TIP3      H1             -0.2198505324       -1.4732648050      -13.4598999678  W2        1197            0.0000000000
      3591      1197  TIP3      H2             -1.6578305324       -1.4907348050      -12.9868199678  W2        1197            0.0000000000
      3592      1198  TIP3      OH2           -16.8889605324      -15.6828948050       -0.7182399678  W2        1198            0.0000000000
      3593      1198  TIP3      H1            -17.7817305324      -15.3443548050       -0.7858399678  W2        1198            0.0000000000
      3594      1198  TIP3      H2            -16.9876805324      -16.5382848050       -0.3001599678  W2        1198            0.0000000000
      3595      1199  TIP3      OH2            -4.6011505324       -7.8663648050      -11.2942899678  W2        1199            0.0000000000
      3596      1199  TIP3      H1             -4.8783905324       -8.5944348050      -10.7381799678  W2        1199            0.0000000000
      3597      1199  TIP3      H2             -3.6738505324       -7.7471648050      -11.0890299678  W2        1199            0.0000000000
      3598      1200  TIP3      OH2           -17.2377605324       -3.8784548050       -2.2832999678  W2        1200            0.0000000000
      3599      1200  TIP3      H1            -17.0207305324       -4.8102148050       -2.3143299678  W2        1200            0.0000000000
      3600      1200  TIP3      H2            -16.9914105324       -3.6039548050       -1.4000199678  W2        1200            0.0000000000
      3601      1201  TIP3      OH2           -11.3763005324       -5.4269548050      -15.0740799678  W2        1201            0.0000000000
      3602      1201  TIP3      H1            -11.1373205324       -6.1751448050      -15.6211899678  W2        1201            0.0000000000
      3603      1201  TIP3      H2            -11.6451705324       -5.8147848050      -14.2412999678  W2        1201            0.0000000000
      3604      1202  TIP3      OH2           -12.4392405324       -5.8565748050      -12.6178199678  W2        1202            0.0000000000
      3605      1202  TIP3      H1            -12.2924405324       -6.3765948050      -11.8277299678  W2        1202            0.0000000000
      3606      1202  TIP3      H2            -12.4420705324       -4.9498148050      -12.3112299678  W2        1202            0.0000000000
      3607      1203  TIP3      OH2           -15.9861305324       -8.6042448050      -12.1072799678  W2        1203            0.0000000000
      3608      1203  TIP3      H1            -16.6722005324       -8.2519948050      -11.5403099678  W2        1203            0.0000000000
      3609      1203  TIP3      H2            -15.4633405324       -7.8412848050      -12.3538499678  W2        1203            0.0000000000
      3610      1204  TIP3      OH2            -8.1546205324      -15.9418648050       -1.8283799678  W2        1204            0.0000000000
      3611      1204  TIP3      H1             -7.4558305324      -15.8679948050       -1.1784099678  W2        1204            0.0000000000
      3612      1204  TIP3      H2             -8.5354805324      -16.8063648050       -1.6740899678  W2        1204            0.0000000000
      3613      1205  TIP3      OH2            -7.3701305324      -16.2896948050      -10.7311499678  W2        1205            0.0000000000
      3614      1205  TIP3      H1             -7.1503005324      -15.8181548050      -11.5346099678  W2        1205            0.0000000000
      3615      1205  TIP3      H2             -6.8117305324      -15.8954348050      -10.0610899678  W2        1205            0.0000000000
      3616      1206  TIP3      OH2            -9.7015205324       -4.1592148050      -11.8683999678  W2        1206            0.0000000000
      3617      1206  TIP3      H1            -10.5179105324       -3.6622448050      -11.8159699678  W2        1206            0.0000000000
      3618      1206  TIP3      H2             -9.1718905324       -3.6838648050      -12.5085199678  W2        1206            0.0000000000
      3619      1207  TIP3      OH2           -10.1701405324      -14.5618148050       -9.8963099678  W2        1207            0.0000000000
      3620      1207  TIP3      H1             -9.3578805324      -14.0574948050       -9.8501399678  W2        1207            0.0000000000
      3621      1207  TIP3      H2            -10.4148405324      -14.7068448050       -8.9823499678  W2        1207            0.0000000000
      3622      1208  TIP3      OH2            -9.6345005324      -13.5755448050       -0.7116499678  W2        1208            0.0000000000
      3623      1208  TIP3      H1             -9.5154705324      -13.0020048050        0.0453900322  W2        1208            0.0000000000
      3624      1208  TIP3      H2             -8.9790405324      -14.2636048050       -0.5968699678  W2        1208            0.0000000000
      3625      1209  TIP3      OH2            -9.2864705324      -17.4805148050       -8.9581999678  W2        1209            0.0000000000
      3626      1209  TIP3      H1             -9.6331205324      -16.8634548050       -8.3137699678  W2        1209            0.0000000000
      3627      1209  TIP3      H2             -8.6277805324      -16.9799448050       -9.4396499678  W2        1209            0.0000000000
      3628      1210  TIP3      OH2           -12.3632105324       -3.1154948050      -11.8867099678  W2        1210            0.0000000000
      3629      1210  TIP3      H1            -12.2023405324       -2.3157448050      -12.3874499678  W2        1210            0.0000000000
      3630      1210  TIP3      H2            -12.5604305324       -2.8088948050      -11.0016499678  W2        1210            0.0000000000
      3631      1211  TIP3      OH2           -13.6287705324      -16.4175748050      -12.2709499678  W2        1211            0.0000000000
      3632      1211  TIP3      H1            -13.7122905324      -15.5292648050      -11.9243099678  W2        1211            0.0000000000
      3633      1211  TIP3      H2            -12.7387405324      -16.6829048050      -12.0392699678  W2        1211            0.0000000000
      3634      1212  TIP3      OH2            -3.4299205324      -15.6685148050        0.1233200322  W2        1212            0.0000000000
      3635      1212  TIP3      H1             -4.3463405324      -15.4063448050        0.0356900322  W2        1212            0.0000000000
      3636      1212  TIP3      H2             -3.0944205324      -15.6716148050       -0.7731499678  W2        1212            0.0000000000
      3637      1213  TIP3      OH2            -4.8278205324      -11.9184148050       -5.7809499678  W2        1213            0.0000000000
      3638      1213  TIP3      H1             -5.6253805324      -12.3333948050       -6.1094499678  W2        1213            0.0000000000
      3639      1213  TIP3      H2             -4.3827105324      -12.6090448050       -5.2898999678  W2        1213            0.0000000000
      3640      1214  TIP3      OH2           -15.3702405324       -5.9903548050      -13.2104999678  W2        1214            0.0000000000
      3641      1214  TIP3      H1            -14.7780905324       -5.2908748050      -12.9342599678  W2        1214            0.0000000000
      3642      1214  TIP3      H2            -14.9109405324       -6.4234048050      -13.9300399678  W2        1214            0.0000000000
      3643      1215  TIP3      OH2           -17.0543205324      -13.3260548050      -14.0945599678  W2        1215            0.0000000000
      3644      1215  TIP3      H1            -17.0990605324      -12.3867448050      -13.9158599678  W2        1215            0.0000000000
      3645      1215  TIP3      H2            -17.9420005324      -13.5615648050      -14.3643499678  W2        1215            0.0000000000
      3646      1216  TIP3      OH2            -3.7413605324       -2.6621648050       -4.1585999678  W2        1216            0.0000000000
      3647      1216  TIP3      H1             -3.8969305324       -1.9837248050       -4.8156699678  W2        1216            0.0000000000
      3648      1216  TIP3      H2             -2.8087205324       -2.5902348050       -3.9555399678  W2        1216            0.0000000000
      3649      1217  TIP3      OH2           -16.2461205324      -18.5443948050       -5.4214599678  W2        1217            0.0000000000
      3650      1217  TIP3      H1            -16.4751405324      -18.4851448050       -6.3489599678  W2        1217            0.0000000000
      3651      1217  TIP3      H2            -16.6887805324      -19.3358448050       -5.1150499678  W2        1217            0.0000000000
      3652      1218  TIP3      OH2           -17.3157905324       -4.6036848050       -9.2608799678  W2        1218            0.0000000000
      3653      1218  TIP3      H1            -18.1479305324       -4.1314148050       -9.2337399678  W2        1218            0.0000000000
      3654      1218  TIP3      H2            -16.7699605324       -4.0939248050       -9.8595699678  W2        1218            0.0000000000
      3655      1219  TIP3      OH2           -18.0274205324       -1.9913148050        2.0689200322  W2        1219            0.0000000000
      3656      1219  TIP3      H1            -17.4872005324       -2.2079148050        2.8288400322  W2        1219            0.0000000000
      3657      1219  TIP3      H2            -18.5086205324       -2.7967148050        1.8791700322  W2        1219            0.0000000000
      3658      1220  TIP3      OH2           -13.4300805324       -3.0718748050        3.6893400322  W2        1220            0.0000000000
      3659      1220  TIP3      H1            -12.6623605324       -3.5307948050        4.0302600322  W2        1220            0.0000000000
      3660      1220  TIP3      H2            -13.4514605324       -3.2978948050        2.7594600322  W2        1220            0.0000000000
      3661      1221  TIP3      OH2            -9.3381205324       -3.5638148050      -14.9354799678  W2        1221            0.0000000000
      3662      1221  TIP3      H1             -9.9820205324       -4.1949548050      -14.6141099678  W2        1221            0.0000000000
      3663      1221  TIP3      H2             -8.5762905324       -4.0950148050      -15.1671299678  W2        1221            0.0000000000
      3664      1222  TIP3      OH2            -6.8532105324       -4.6917648050        2.4184900322  W2        1222            0.0000000000
      3665      1222  TIP3      H1             -7.2042605324       -5.5484648050        2.6615300322  W2        1222            0.0000000000
      3666      1222  TIP3      H2             -6.1268905324       -4.5490948050        3.0253900322  W2        1222            0.0000000000
      3667      1223  TIP3      OH2            -4.7338305324       -3.7468248050      -14.7016799678  W2        1223            0.0000000000
      3668      1223  TIP3      H1             -4.4507905324       -4.5413048050      -14.2489899678  W2        1223            0.0000000000
      3669      1223  TIP3      H2             -3.9940405324       -3.5137248050      -15.2625699678  W2        1223            0.0000000000
      3670      1224  TIP3      OH2           -18.1204705324       -8.1809048050        3.0233500322  W2        1224            0.0000000000
      3671      1224  TIP3      H1            -17.9764205324       -9.0828348050        2.7370200322  W2        1224            0.0000000000
      3672      1224  TIP3      H2            -18.8927305324       -7.8946948050        2.5355800322  W2        1224            0.0000000000
      3673      1225  TIP3      OH2           -13.7791005324       -7.8373348050      -14.8441899678  W2        1225            0.0000000000
      3674      1225  TIP3      H1            -13.7146905324       -8.6313748050      -14.3135499678  W2        1225            0.0000000000
      3675      1225  TIP3      H2            -13.1261805324       -7.9560548050      -15.5339899678  W2        1225            0.0000000000
      3676      1226  TIP3      OH2           -11.4648605324       -8.2110948050        2.4559900322  W2        1226            0.0000000000
      3677      1226  TIP3      H1            -11.7934805324       -7.9402848050        1.5987300322  W2        1226            0.0000000000
      3678      1226  TIP3      H2            -11.3130405324       -9.1521148050        2.3684900322  W2        1226            0.0000000000
      3679      1227  TIP3      OH2            -8.4267605324       -6.7901648050      -15.1083899678  W2        1227            0.0000000000
      3680      1227  TIP3      H1             -8.6953505324       -6.6099548050      -14.2074999678  W2        1227            0.0000000000
      3681      1227  TIP3      H2             -8.6332005324       -7.7155448050      -15.2398099678  W2        1227            0.0000000000
      3682      1228  TIP3      OH2            -5.7303405324       -8.2953648050       -0.1607799678  W2        1228            0.0000000000
      3683      1228  TIP3      H1             -4.9848605324       -7.7069948050       -0.2803799678  W2        1228            0.0000000000
      3684      1228  TIP3      H2             -6.4876605324       -7.7133948050       -0.0974699678  W2        1228            0.0000000000
      3685      1229  TIP3      OH2           -17.2878205324      -10.9805748050        2.4432800322  W2        1229            0.0000000000
      3686      1229  TIP3      H1            -16.8797005324      -11.8379148050        2.3223400322  W2        1229            0.0000000000
      3687      1229  TIP3      H2            -17.5480605324      -10.9664448050        3.3643100322  W2        1229            0.0000000000
      3688      1230  TIP3      OH2           -12.6297205324       -9.8647148050      -12.5383899678  W2        1230            0.0000000000
      3689      1230  TIP3      H1            -13.0895205324      -10.3488848050      -11.8525399678  W2        1230            0.0000000000
      3690      1230  TIP3      H2            -12.3748505324      -10.5331748050      -13.1743399678  W2        1230            0.0000000000
      3691      1231  TIP3      OH2           -13.3407905324      -11.9720048050       -0.1824299678  W2        1231            0.0000000000
      3692      1231  TIP3      H1            -13.9591805324      -11.2973448050        0.0980400322  W2        1231            0.0000000000
      3693      1231  TIP3      H2            -12.9966705324      -11.6506148050       -1.0158099678  W2        1231            0.0000000000
      3694      1232  TIP3      OH2           -11.5586805324      -11.6215348050      -14.2760699678  W2        1232            0.0000000000
      3695      1232  TIP3      H1            -11.7391805324      -11.7764148050      -15.2032399678  W2        1232            0.0000000000
      3696      1232  TIP3      H2            -10.6086305324      -11.5136648050      -14.2312799678  W2        1232            0.0000000000
      3697      1233  TIP3      OH2            -8.3209705324       -9.5004748050        3.0950500322  W2        1233            0.0000000000
      3698      1233  TIP3      H1             -7.3678505324       -9.4165648050        3.0676500322  W2        1233            0.0000000000
      3699      1233  TIP3      H2             -8.4815105324      -10.2122948050        3.7145400322  W2        1233            0.0000000000
      3700      1234  TIP3      OH2            -2.1688505324       -9.2671148050      -14.8302599678  W2        1234            0.0000000000
      3701      1234  TIP3      H1             -2.4423705324       -9.6915648050      -15.6434299678  W2        1234            0.0000000000
      3702      1234  TIP3      H2             -2.1294405324       -8.3356648050      -15.0472199678  W2        1234            0.0000000000
      3703      1235  TIP3      OH2           -13.0014205324      -14.6169248050        0.8998800322  W2        1235            0.0000000000
      3704      1235  TIP3      H1            -12.8513305324      -15.3457948050        0.2978500322  W2        1235            0.0000000000
      3705      1235  TIP3      H2            -12.9991805324      -13.8397548050        0.3411000322  W2        1235            0.0000000000
      3706      1236  TIP3      OH2           -12.5888505324      -16.2473448050       -1.6073799678  W2        1236            0.0000000000
      3707      1236  TIP3      H1            -12.0531005324      -15.7956748050       -2.2594499678  W2        1236            0.0000000000
      3708      1236  TIP3      H2            -13.4408905324      -16.3553648050       -2.0299699678  W2        1236            0.0000000000
      3709      1237  TIP3      OH2           -11.0070105324      -10.8077248050       -1.3678599678  W2        1237            0.0000000000
      3710      1237  TIP3      H1            -10.2565305324      -10.9639748050       -1.9410799678  W2        1237            0.0000000000
      3711      1237  TIP3      H2            -11.3461805324       -9.9560648050       -1.6433099678  W2        1237            0.0000000000
      3712      1238  TIP3      OH2            -6.5913905324      -12.9925448050        3.6606700322  W2        1238            0.0000000000
      3713      1238  TIP3      H1             -6.3992605324      -13.9236048050        3.5491200322  W2        1238            0.0000000000
      3714      1238  TIP3      H2             -5.7337605324      -12.5675948050        3.6502100322  W2        1238            0.0000000000
      3715      1239  TIP3      OH2            -5.2746705324      -10.2040248050        1.7379400322  W2        1239            0.0000000000
      3716      1239  TIP3      H1             -5.5561705324       -9.4945648050        1.1603200322  W2        1239            0.0000000000
      3717      1239  TIP3      H2             -4.3322405324      -10.2767248050        1.5870600322  W2        1239            0.0000000000
      3718      1240  TIP3      OH2           -14.5227905324      -13.4185748050        2.8114400322  W2        1240            0.0000000000
      3719      1240  TIP3      H1            -15.2898905324      -13.9510948050        2.6012000322  W2        1240            0.0000000000
      3720      1240  TIP3      H2            -13.8438905324      -13.7285348050        2.2120700322  W2        1240            0.0000000000
      3721      1241  TIP3      OH2           -11.7833005324      -18.7907748050       -1.1760199678  W2        1241            0.0000000000
      3722      1241  TIP3      H1            -11.8813405324      -17.8444548050       -1.2813999678  W2        1241            0.0000000000
      3723      1241  TIP3      H2            -12.5256805324      -19.1633948050       -1.6516699678  W2        1241            0.0000000000
      3724      1242  TIP3      OH2           -10.5192505324      -14.4692348050        2.3878200322  W2        1242            0.0000000000
      3725      1242  TIP3      H1            -10.7547105324      -14.6885648050        3.2893100322  W2        1242            0.0000000000
      3726      1242  TIP3      H2            -11.3025605324      -14.6761148050        1.8780700322  W2        1242            0.0000000000
      3727      1243  TIP3      OH2            -7.8035905324      -15.3418848050        1.4631700322  W2        1243            0.0000000000
      3728      1243  TIP3      H1             -8.7510505324      -15.3099148050        1.5955000322  W2        1243            0.0000000000
      3729      1243  TIP3      H2             -7.4909205324      -15.9671748050        2.1169900322  W2        1243            0.0000000000
      3730      1244  TIP3      OH2            -6.1694405324      -16.7077748050        3.4683600322  W2        1244            0.0000000000
      3731      1244  TIP3      H1             -6.2662605324      -17.6600448050        3.4625500322  W2        1244            0.0000000000
      3732      1244  TIP3      H2             -6.4911305324      -16.4390948050        4.3289100322  W2        1244            0.0000000000
      3733      1245  TIP3      OH2           -16.3425105324      -15.4981948050        2.5159100322  W2        1245            0.0000000000
      3734      1245  TIP3      H1            -16.1307705324      -16.2045848050        1.9056600322  W2        1245            0.0000000000
      3735      1245  TIP3      H2            -16.4537605324      -15.9355948050        3.3600300322  W2        1245            0.0000000000
      3736      1246  TIP3      OH2           -11.5614905324      -19.4970348050        1.4952600322  W2        1246            0.0000000000
      3737      1246  TIP3      H1            -10.8496505324      -20.1368148050        1.4811700322  W2        1246            0.0000000000
      3738      1246  TIP3      H2            -11.6624505324      -19.2302048050        0.5815700322  W2        1246            0.0000000000
      3739      1247  TIP3      OH2           -11.2077405324      -17.8141948050        3.5488900322  W2        1247            0.0000000000
      3740      1247  TIP3      H1            -11.3395205324      -18.2898148050        2.7287400322  W2        1247            0.0000000000
      3741      1247  TIP3      H2            -11.8070005324      -17.0698348050        3.4936000322  W2        1247            0.0000000000
      3742      1248  TIP3      OH2           -11.6615105324       -0.9311648050      -13.2747099678  W2        1248            0.0000000000
      3743      1248  TIP3      H1            -10.7284405324       -0.7732948050      -13.1308699678  W2        1248            0.0000000000
      3744      1248  TIP3      H2            -11.9256305324       -0.2558648050      -13.8995599678  W2        1248            0.0000000000
      3745      1249  TIP3      OH2           -18.0930205324       -6.2947848050      -13.7918999678  W2        1249            0.0000000000
      3746      1249  TIP3      H1            -17.1791005324       -6.2158948050      -13.5185099678  W2        1249            0.0000000000
      3747      1249  TIP3      H2            -18.0857105324       -6.9818248050      -14.4583399678  W2        1249            0.0000000000
      3748      1250  TIP3      OH2           -19.4439605324       -0.9019348050       -8.7145099678  W2        1250            0.0000000000
      3749      1250  TIP3      H1            -20.0912505324       -1.3637648050       -9.2473899678  W2        1250            0.0000000000
      3750      1250  TIP3      H2            -19.0895005324       -1.5736048050       -8.1318899678  W2        1250            0.0000000000
      3751      1251  TIP3      OH2           -18.5740405324       -2.8212348050       -6.9098899678  W2        1251            0.0000000000
      3752      1251  TIP3      H1            -18.9083605324       -3.7015048050       -6.7378699678  W2        1251            0.0000000000
      3753      1251  TIP3      H2            -18.3518005324       -2.4757348050       -6.0453299678  W2        1251            0.0000000000
      3754      1252  TIP3      OH2            -1.0255605324       -2.0115948050       -3.9294099678  W2        1252            0.0000000000
      3755      1252  TIP3      H1             -1.0468905324       -1.8267548050       -2.9904699678  W2        1252            0.0000000000
      3756      1252  TIP3      H2             -0.3349405324       -1.4431948050       -4.2702699678  W2        1252            0.0000000000
      3757      1253  TIP3      OH2            -1.4622705324       -2.4444848050       -1.0074999678  W2        1253            0.0000000000
      3758      1253  TIP3      H1             -1.9494005324       -3.1800748050       -1.3787599678  W2        1253            0.0000000000
      3759      1253  TIP3      H2             -0.9130005324       -2.8380948050       -0.3295599678  W2        1253            0.0000000000
      3760      1254  TIP3      OH2            -3.0115405324       -6.6546748050        3.6305300322  W2        1254            0.0000000000
      3761      1254  TIP3      H1             -3.8774305324       -6.7597048050        4.0247600322  W2        1254            0.0000000000
      3762      1254  TIP3      H2             -2.6349505324       -5.8963448050        4.0770000322  W2        1254            0.0000000000
      3763      1255  TIP3      OH2            -1.7105705324       -8.3983048050      -10.8552199678  W2        1255            0.0000000000
      3764      1255  TIP3      H1             -0.8604305324       -7.9772148050      -10.7280599678  W2        1255            0.0000000000
      3765      1255  TIP3      H2             -1.7050605324       -9.1382948050      -10.2480799678  W2        1255            0.0000000000
      3766      1256  TIP3      OH2            -1.3160105324      -10.3445648050       -9.0316499678  W2        1256            0.0000000000
      3767      1256  TIP3      H1             -2.0425505324      -10.8243048050       -8.6338899678  W2        1256            0.0000000000
      3768      1256  TIP3      H2             -0.7346805324      -10.1390948050       -8.2994899678  W2        1256            0.0000000000
      3769      1257  TIP3      OH2            -1.5568905324       -7.5598148050       -4.0838899678  W2        1257            0.0000000000
      3770      1257  TIP3      H1             -0.7234705324       -7.9378148050       -4.3645299678  W2        1257            0.0000000000
      3771      1257  TIP3      H2             -1.4448605324       -6.6166948050       -4.2029799678  W2        1257            0.0000000000
      3772      1258  TIP3      OH2            -3.0706605324       -4.6820648050       -1.7770499678  W2        1258            0.0000000000
      3773      1258  TIP3      H1             -3.7181305324       -4.3569148050       -1.1515299678  W2        1258            0.0000000000
      3774      1258  TIP3      H2             -3.5882605324       -5.1222948050       -2.4512199678  W2        1258            0.0000000000
      3775      1259  TIP3      OH2            -1.0477005324      -10.4437148050      -12.6405199678  W2        1259            0.0000000000
      3776      1259  TIP3      H1             -1.5695905324      -10.0873048050      -13.3594299678  W2        1259            0.0000000000
      3777      1259  TIP3      H2             -1.0807805324       -9.7689348050      -11.9624299678  W2        1259            0.0000000000
      3778      1260  TIP3      OH2            -2.6988005324      -13.2041548050      -14.0898099678  W2        1260            0.0000000000
      3779      1260  TIP3      H1             -2.6023605324      -12.5374548050      -14.7698399678  W2        1260            0.0000000000
      3780      1260  TIP3      H2             -2.8388405324      -14.0195248050      -14.5712599678  W2        1260            0.0000000000
      3781      1261  TIP3      OH2            -3.5293305324      -11.8239148050       -8.4687799678  W2        1261            0.0000000000
      3782      1261  TIP3      H1             -3.6794505324      -12.7690548050       -8.4889999678  W2        1261            0.0000000000
      3783      1261  TIP3      H2             -3.8828805324      -11.5427748050       -7.6248699678  W2        1261            0.0000000000
      3784      1262  TIP3      OH2           -18.4940905324       -9.7456948050       -4.4583999678  W2        1262            0.0000000000
      3785      1262  TIP3      H1            -18.3098005324       -9.8275248050       -5.3941099678  W2        1262            0.0000000000
      3786      1262  TIP3      H2            -17.6448005324       -9.8699948050       -4.0347599678  W2        1262            0.0000000000
      3787      1263  TIP3      OH2            -2.6730405324       -9.8535848050        1.1700500322  W2        1263            0.0000000000
      3788      1263  TIP3      H1             -2.0903105324      -10.5883548050        1.3617700322  W2        1263            0.0000000000
      3789      1263  TIP3      H2             -2.1091105324       -9.0815548050        1.2166300322  W2        1263            0.0000000000
      3790      1264  TIP3      OH2            -1.1763305324      -11.9510048050        1.8545900322  W2        1264            0.0000000000
      3791      1264  TIP3      H1             -2.0396605324      -12.3297948050        1.6890600322  W2        1264            0.0000000000
      3792      1264  TIP3      H2             -0.5719605324      -12.6895248050        1.7801700322  W2        1264            0.0000000000
      3793      1265  TIP3      OH2            -3.4514205324      -15.7961748050      -14.9722599678  W2        1265            0.0000000000
      3794      1265  TIP3      H1             -2.8408405324      -16.1674948050      -14.3354399678  W2        1265            0.0000000000
      3795      1265  TIP3      H2             -4.2882705324      -16.2174848050      -14.7762599678  W2        1265            0.0000000000
      3796      1266  TIP3      OH2            -3.8188505324      -14.2413348050      -10.0062699678  W2        1266            0.0000000000
      3797      1266  TIP3      H1             -3.5391405324      -15.1482948050       -9.8820999678  W2        1266            0.0000000000
      3798      1266  TIP3      H2             -3.0596805324      -13.8071848050      -10.3953499678  W2        1266            0.0000000000
      3799      1267  TIP3      OH2            -3.2070205324      -13.6595948050       -4.5703799678  W2        1267            0.0000000000
      3800      1267  TIP3      H1             -2.2742205324      -13.4476048050       -4.6047799678  W2        1267            0.0000000000
      3801      1267  TIP3      H2             -3.4422705324      -13.5583848050       -3.6480799678  W2        1267            0.0000000000
      3802      1268  TIP3      OH2            -3.1778305324      -12.9230648050       -1.7944399678  W2        1268            0.0000000000
      3803      1268  TIP3      H1             -4.0207005324      -12.6550248050       -1.4284599678  W2        1268            0.0000000000
      3804      1268  TIP3      H2             -2.7354005324      -12.1008748050       -2.0053299678  W2        1268            0.0000000000
      3805      1269  TIP3      OH2           -18.8966105324      -14.4751948050        1.6824800322  W2        1269            0.0000000000
      3806      1269  TIP3      H1            -17.9771205324      -14.5973648050        1.9187900322  W2        1269            0.0000000000
      3807      1269  TIP3      H2            -19.3461605324      -15.2252248050        2.0718300322  W2        1269            0.0000000000
      3808      1270  TIP3      OH2            -0.8946705324      -18.9430448050        3.5590600322  W2        1270            0.0000000000
      3809      1270  TIP3      H1             -0.5449705324      -19.5966948050        2.9535300322  W2        1270            0.0000000000
      3810      1270  TIP3      H2             -0.7477205324      -18.1056348050        3.1193200322  W2        1270            0.0000000000
      3811      1271  TIP3      OH2            -3.2053705324      -16.9784048050       -9.9580699678  W2        1271            0.0000000000
      3812      1271  TIP3      H1             -3.0228705324      -17.4272548050       -9.1325699678  W2        1271            0.0000000000
      3813      1271  TIP3      H2             -3.8050805324      -17.5629648050      -10.4216099678  W2        1271            0.0000000000
      3814      1272  TIP3      OH2           -17.6753605324      -16.1630348050       -5.4262299678  W2        1272            0.0000000000
      3815      1272  TIP3      H1            -17.2302005324      -16.9547848050       -5.1242599678  W2        1272            0.0000000000
      3816      1272  TIP3      H2            -17.2090605324      -15.4465148050       -4.9956699678  W2        1272            0.0000000000
      3817      1273  TIP3      OH2           -19.3713305324      -13.1637348050       -4.3572099678  W2        1273            0.0000000000
      3818      1273  TIP3      H1            -18.8793505324      -13.3846848050       -5.1480099678  W2        1273            0.0000000000
      3819      1273  TIP3      H2            -19.0092405324      -12.3233948050       -4.0762599678  W2        1273            0.0000000000
      3820      1274  TIP3      OH2            -1.3749505324      -16.8335848050        1.9081900322  W2        1274            0.0000000000
      3821      1274  TIP3      H1             -2.2923805324      -16.5628748050        1.8725400322  W2        1274            0.0000000000
      3822      1274  TIP3      H2             -1.2520105324      -17.3687448050        1.1241600322  W2        1274            0.0000000000
      3823      1275  TIP3      OH2            -1.3387505324      -16.9105948050      -13.4300399678  W2        1275            0.0000000000
      3824      1275  TIP3      H1             -0.9264905324      -17.6320248050      -13.9052399678  W2        1275            0.0000000000
      3825      1275  TIP3      H2             -0.6571005324      -16.2411348050      -13.3716099678  W2        1275            0.0000000000
      3826      1276  TIP3      OH2           -19.0576805324      -16.9058248050      -10.3029699678  W2        1276            0.0000000000
      3827      1276  TIP3      H1            -19.9828405324      -16.6971648050      -10.4324199678  W2        1276            0.0000000000
      3828      1276  TIP3      H2            -18.6036905324      -16.4217448050      -10.9927399678  W2        1276            0.0000000000
      3829      1277  TIP3      OH2            -4.2869605324       -1.9216548050       -8.3572299678  W2        1277            0.0000000000
      3830      1277  TIP3      H1             -3.6346705324       -2.2694448050       -8.9653199678  W2        1277            0.0000000000
      3831      1277  TIP3      H2             -3.7765805324       -1.4333348050       -7.7112599678  W2        1277            0.0000000000
      3832      1278  TIP3      OH2           -19.0941405324      -18.1679248050       -1.9587199678  W2        1278            0.0000000000
      3833      1278  TIP3      H1            -19.7590905324      -18.4138948050       -1.3156299678  W2        1278            0.0000000000
      3834      1278  TIP3      H2            -19.5370105324      -17.5458848050       -2.5359199678  W2        1278            0.0000000000
      3835      1279  TIP3      OH2           -16.9022105324       -4.9925148050        2.1858600322  W2        1279            0.0000000000
      3836      1279  TIP3      H1            -17.7229605324       -4.8178648050        1.7253300322  W2        1279            0.0000000000
      3837      1279  TIP3      H2            -17.1544305324       -5.0660448050        3.1063000322  W2        1279            0.0000000000
      3838      1280  TIP3      OH2           -13.9479205324       -4.0183948050       -1.5557399678  W2        1280            0.0000000000
      3839      1280  TIP3      H1            -14.3728105324       -3.2085448050       -1.8382799678  W2        1280            0.0000000000
      3840      1280  TIP3      H2            -13.0436405324       -3.9329848050       -1.8577599678  W2        1280            0.0000000000
      3841      1281  TIP3      OH2            -9.6367805324       -2.6193948050        1.4036300322  W2        1281            0.0000000000
      3842      1281  TIP3      H1             -9.4520305324       -2.9527848050        2.2816600322  W2        1281            0.0000000000
      3843      1281  TIP3      H2             -8.7903305324       -2.3095348050        1.0815500322  W2        1281            0.0000000000
      3844      1282  TIP3      OH2            -7.2917405324       -1.3335048050        0.6477700322  W2        1282            0.0000000000
      3845      1282  TIP3      H1             -6.6148505324       -1.9662748050        0.4076900322  W2        1282            0.0000000000
      3846      1282  TIP3      H2             -6.9698605324       -0.9324548050        1.4551000322  W2        1282            0.0000000000
      3847      1283  TIP3      OH2            -2.3743605324      -18.7439548050       -0.2727299678  W2        1283            0.0000000000
      3848      1283  TIP3      H1             -3.1870105324      -18.4189248050       -0.6602599678  W2        1283            0.0000000000
      3849      1283  TIP3      H2             -2.1415105324      -19.5041048050       -0.8058199678  W2        1283            0.0000000000
      3850      1284  TIP3      OH2           -16.5462505324       -0.7620048050       -1.5082099678  W2        1284            0.0000000000
      3851      1284  TIP3      H1            -17.2666105324       -0.3219048050       -1.9594399678  W2        1284            0.0000000000
      3852      1284  TIP3      H2            -16.9118505324       -1.0125348050       -0.6598099678  W2        1284            0.0000000000
      3853      1285  TIP3      OH2           -14.0789905324       -1.1616148050       -2.4784899678  W2        1285            0.0000000000
      3854      1285  TIP3      H1            -14.9437705324       -1.0897648050       -2.0744799678  W2        1285            0.0000000000
      3855      1285  TIP3      H2            -14.1340905324       -0.6148848050       -3.2622399678  W2        1285            0.0000000000
      3856      1286  TIP3      OH2            -9.3684305324       -1.2737248050       -3.3028899678  W2        1286            0.0000000000
      3857      1286  TIP3      H1             -9.8250305324       -0.7447548050       -3.9570499678  W2        1286            0.0000000000
      3858      1286  TIP3      H2             -9.2056305324       -0.6705848050       -2.5776599678  W2        1286            0.0000000000
      3859      1287  TIP3      OH2            -7.0408005324       -2.3957648050       -2.3578599678  W2        1287            0.0000000000
      3860      1287  TIP3      H1             -7.9454305324       -2.2307448050       -2.6236499678  W2        1287            0.0000000000
      3861      1287  TIP3      H2             -6.6119405324       -1.5425448050       -2.4235199678  W2        1287            0.0000000000
      3862      1288  TIP3      OH2            -4.4366105324       -0.8258548050       -2.0630799678  W2        1288            0.0000000000
      3863      1288  TIP3      H1             -4.6184105324        0.0900351950       -2.2735899678  W2        1288            0.0000000000
      3864      1288  TIP3      H2             -4.2598305324       -1.2361448050       -2.9096199678  W2        1288            0.0000000000
      3865      1289  TIP3      OH2           -17.1314405324       -2.1387548050       -4.5980299678  W2        1289            0.0000000000
      3866      1289  TIP3      H1            -17.1498405324       -2.5642448050       -3.7407999678  W2        1289            0.0000000000
      3867      1289  TIP3      H2            -16.3266505324       -2.4572548050       -5.0068099678  W2        1289            0.0000000000
      3868      1290  TIP3      OH2           -14.9901305324       -3.4288848050       -5.9430399678  W2        1290            0.0000000000
      3869      1290  TIP3      H1            -15.2090605324       -4.3451448050       -5.7734399678  W2        1290            0.0000000000
      3870      1290  TIP3      H2            -14.1659105324       -3.2888448050       -5.4768999678  W2        1290            0.0000000000
      3871      1291  TIP3      OH2           -12.4528805324       -2.9589548050       -5.0942399678  W2        1291            0.0000000000
      3872      1291  TIP3      H1            -12.2403105324       -3.8470548050       -5.3811499678  W2        1291            0.0000000000
      3873      1291  TIP3      H2            -12.3883705324       -2.9931848050       -4.1398399678  W2        1291            0.0000000000
      3874      1292  TIP3      OH2            -8.9445105324      -17.2948948050       -5.9499099678  W2        1292            0.0000000000
      3875      1292  TIP3      H1             -9.6188305324      -17.9243348050       -5.6943299678  W2        1292            0.0000000000
      3876      1292  TIP3      H2             -8.3805905324      -17.7790048050       -6.5531199678  W2        1292            0.0000000000
      3877      1293  TIP3      OH2            -3.8017905324      -19.1874948050       -5.8371999678  W2        1293            0.0000000000
      3878      1293  TIP3      H1             -3.1980305324      -18.6399548050       -6.3390999678  W2        1293            0.0000000000
      3879      1293  TIP3      H2             -4.6715905324      -18.8684548050       -6.0777899678  W2        1293            0.0000000000
      3880      1294  TIP3      OH2            -2.0747505324      -18.0486248050       -7.5041099678  W2        1294            0.0000000000
      3881      1294  TIP3      H1             -1.4630005324      -18.5630548050       -8.0307499678  W2        1294            0.0000000000
      3882      1294  TIP3      H2             -1.6924105324      -17.1714148050       -7.4806699678  W2        1294            0.0000000000
      3883      1295  TIP3      OH2           -16.6177605324      -18.6608648050       -8.1279199678  W2        1295            0.0000000000
      3884      1295  TIP3      H1            -17.3947805324      -18.8953748050       -8.6353299678  W2        1295            0.0000000000
      3885      1295  TIP3      H2            -16.0874005324      -19.4576548050       -8.1191199678  W2        1295            0.0000000000
      3886      1296  TIP3      OH2           -17.7814205324      -18.8630548050      -12.3243099678  W2        1296            0.0000000000
      3887      1296  TIP3      H1            -17.3423505324      -18.2520048050      -12.9159599678  W2        1296            0.0000000000
      3888      1296  TIP3      H2            -18.4151805324      -18.3246448050      -11.8503099678  W2        1296            0.0000000000
      3889      1297  TIP3      OH2           -12.0385005324      -18.7341548050       -8.3146099678  W2        1297            0.0000000000
      3890      1297  TIP3      H1            -11.1641605324      -18.3457248050       -8.3441799678  W2        1297            0.0000000000
      3891      1297  TIP3      H2            -12.1744205324      -18.9493748050       -7.3918899678  W2        1297            0.0000000000
      3892      1298  TIP3      OH2            -6.4816605324      -18.7041748050       -6.6654399678  W2        1298            0.0000000000
      3893      1298  TIP3      H1             -6.4055005324      -18.6090148050       -7.6148399678  W2        1298            0.0000000000
      3894      1298  TIP3      H2             -6.7567405324      -19.6118848050       -6.5365299678  W2        1298            0.0000000000
      3895      1299  TIP3      OH2            -5.1284005324      -18.6783948050      -10.9729399678  W2        1299            0.0000000000
      3896      1299  TIP3      H1             -5.8312905324      -18.0634748050      -11.1827999678  W2        1299            0.0000000000
      3897      1299  TIP3      H2             -5.5732605324      -19.5157248050      -10.8418499678  W2        1299            0.0000000000
      3898      1300  TIP3      OH2           -17.8804705324       -2.9148348050      -11.4267999678  W2        1300            0.0000000000
      3899      1300  TIP3      H1            -18.5654805324       -2.9529448050      -12.0942899678  W2        1300            0.0000000000
      3900      1300  TIP3      H2            -17.8767505324       -2.0020748050      -11.1385899678  W2        1300            0.0000000000
      3901      1301  TIP3      OH2           -15.9205105324      -16.9469048050      -13.8818999678  W2        1301            0.0000000000
      3902      1301  TIP3      H1            -15.4291705324      -17.5766648050      -14.4093499678  W2        1301            0.0000000000
      3903      1301  TIP3      H2            -15.2968805324      -16.6509648050      -13.2187799678  W2        1301            0.0000000000
      3904      1302  TIP3      OH2           -10.8945005324      -16.6537548050      -11.4248499678  W2        1302            0.0000000000
      3905      1302  TIP3      H1            -10.7163705324      -17.3004348050      -10.7419899678  W2        1302            0.0000000000
      3906      1302  TIP3      H2            -10.9478805324      -15.8199848050      -10.9577399678  W2        1302            0.0000000000
      3907      1303  TIP3      OH2            -9.0161205324       -1.7053448050      -13.0291799678  W2        1303            0.0000000000
      3908      1303  TIP3      H1             -8.1501005324       -1.3386048050      -13.2073599678  W2        1303            0.0000000000
      3909      1303  TIP3      H2             -9.2628405324       -2.1445448050      -13.8430999678  W2        1303            0.0000000000
      3910      1304  TIP3      OH2            -2.3071605324       -2.1423148050      -10.3500699678  W2        1304            0.0000000000
      3911      1304  TIP3      H1             -2.5014505324       -2.8901048050      -10.9151099678  W2        1304            0.0000000000
      3912      1304  TIP3      H2             -2.3461505324       -1.3843048050      -10.9332799678  W2        1304            0.0000000000
      3913      1305  TIP3      OH2           -16.6599605324      -18.1466748050        1.3897000322  W2        1305            0.0000000000
      3914      1305  TIP3      H1            -17.0261405324      -18.9124148050        1.8321700322  W2        1305            0.0000000000
      3915      1305  TIP3      H2            -15.7471105324      -18.1176548050        1.6762100322  W2        1305            0.0000000000
      3916      1306  TIP3      OH2           -14.6868805324      -18.7962348050        2.9254100322  W2        1306            0.0000000000
      3917      1306  TIP3      H1            -13.7885205324      -19.0702148050        2.7407500322  W2        1306            0.0000000000
      3918      1306  TIP3      H2            -15.0735705324      -19.5386348050        3.3896700322  W2        1306            0.0000000000
      3919      1307  TIP3      OH2           -16.0623505324       -1.9947548050      -14.4015899678  W2        1307            0.0000000000
      3920      1307  TIP3      H1            -16.3298905324       -1.7084648050      -13.5282799678  W2        1307            0.0000000000
      3921      1307  TIP3      H2            -15.2910905324       -2.5408348050      -14.2493399678  W2        1307            0.0000000000
      3922      1308  TIP3      OH2            -6.2656505324      -19.4637048050        3.1076900322  W2        1308            0.0000000000
      3923      1308  TIP3      H1             -6.1889305324      -19.8896348050        3.9614600322  W2        1308            0.0000000000
      3924      1308  TIP3      H2             -5.3719905324      -19.4502348050        2.7650400322  W2        1308            0.0000000000
      3925      1309  TIP3      OH2            -3.0895405324       -3.3910748050        1.8001100322  W2        1309            0.0000000000
      3926      1309  TIP3      H1             -3.8713505324       -3.5772748050        1.2801700322  W2        1309            0.0000000000
      3927      1309  TIP3      H2             -3.1615505324       -2.4616448050        2.0173600322  W2        1309            0.0000000000
      3928      1310  TIP3      OH2            11.3164994676       -9.5046348050       -8.1691699678  W2        1310            0.0000000000
      3929      1310  TIP3      H1             11.4056094676       -8.5608148050       -8.3014599678  W2        1310            0.0000000000
      3930      1310  TIP3      H2             10.6782594676       -9.7799948050       -8.8272299678  W2        1310            0.0000000000
      3931      1311  TIP3      OH2            10.2496294676      -10.2495648050       -4.7503499678  W2        1311            0.0000000000
      3932      1311  TIP3      H1             10.2113794676      -10.8959348050       -4.0453899678  W2        1311            0.0000000000
      3933      1311  TIP3      H2              9.9272794676      -10.7161248050       -5.5214799678  W2        1311            0.0000000000
      3934      1312  TIP3      OH2             2.6181294676      -10.6353548050       -3.1573599678  W2        1312            0.0000000000
      3935      1312  TIP3      H1              2.6593394676      -11.2610248050       -2.4341199678  W2        1312            0.0000000000
      3936      1312  TIP3      H2              3.3208994676      -10.0114948050       -2.9753199678  W2        1312            0.0000000000
      3937      1313  TIP3      OH2            13.9556494676       -7.3105248050       -6.4488399678  W2        1313            0.0000000000
      3938      1313  TIP3      H1             13.5149194676       -8.0309248050       -5.9982799678  W2        1313            0.0000000000
      3939      1313  TIP3      H2             13.9426194676       -6.5898048050       -5.8190699678  W2        1313            0.0000000000
      3940      1314  TIP3      OH2             3.5414394676       -6.1854648050       -4.6224499678  W2        1314            0.0000000000
      3941      1314  TIP3      H1              3.1719594676       -6.9874148050       -4.9920199678  W2        1314            0.0000000000
      3942      1314  TIP3      H2              4.4825494676       -6.3539748050       -4.5761099678  W2        1314            0.0000000000
      3943      1315  TIP3      OH2             0.1514894676      -12.5252048050       -9.2295699678  W2        1315            0.0000000000
      3944      1315  TIP3      H1             -0.2961705324      -11.6793348050       -9.2479199678  W2        1315            0.0000000000
      3945      1315  TIP3      H2             -0.4093905324      -13.1047848050       -9.7450599678  W2        1315            0.0000000000
      3946      1316  TIP3      OH2             0.8620994676      -10.3632448050       -7.1037699678  W2        1316            0.0000000000
      3947      1316  TIP3      H1              1.0754494676      -11.1330848050       -6.5764699678  W2        1316            0.0000000000
      3948      1316  TIP3      H2              1.5998594676      -10.2735748050       -7.7070099678  W2        1316            0.0000000000
      3949      1317  TIP3      OH2            11.0671994676       -2.2063548050       -6.2367999678  W2        1317            0.0000000000
      3950      1317  TIP3      H1             11.6868394676       -2.8828848050       -6.5098799678  W2        1317            0.0000000000
      3951      1317  TIP3      H2             10.8589394676       -2.4242748050       -5.3283099678  W2        1317            0.0000000000
      3952      1318  TIP3      OH2             8.6390694676       -7.8174248050       -4.3442499678  W2        1318            0.0000000000
      3953      1318  TIP3      H1              8.9428594676       -8.5032848050       -4.9388399678  W2        1318            0.0000000000
      3954      1318  TIP3      H2              9.3604694676       -7.6985548050       -3.7264499678  W2        1318            0.0000000000
      3955      1319  TIP3      OH2            17.3020494676      -16.2158948050       -3.4836299678  W2        1319            0.0000000000
      3956      1319  TIP3      H1             17.3512694676      -15.6057748050       -2.7477199678  W2        1319            0.0000000000
      3957      1319  TIP3      H2             17.7275594676      -15.7548048050       -4.2065199678  W2        1319            0.0000000000
      3958      1320  TIP3      OH2            11.7797694676      -13.4231848050       -4.0167699678  W2        1320            0.0000000000
      3959      1320  TIP3      H1             11.9223594676      -14.3694848050       -3.9966099678  W2        1320            0.0000000000
      3960      1320  TIP3      H2             11.6736694676      -13.2162048050       -4.9452799678  W2        1320            0.0000000000
      3961      1321  TIP3      OH2             4.9345994676      -15.3215448050       -6.7442899678  W2        1321            0.0000000000
      3962      1321  TIP3      H1              4.9777094676      -14.4616948050       -7.1626599678  W2        1321            0.0000000000
      3963      1321  TIP3      H2              4.4770094676      -15.8740748050       -7.3779699678  W2        1321            0.0000000000
      3964      1322  TIP3      OH2            12.6568694676      -15.1909848050       -8.3434599678  W2        1322            0.0000000000
      3965      1322  TIP3      H1             13.3032994676      -15.5196648050       -7.7186999678  W2        1322            0.0000000000
      3966      1322  TIP3      H2             13.1668094676      -14.6730848050       -8.9663199678  W2        1322            0.0000000000
      3967      1323  TIP3      OH2             1.5547494676      -12.9249648050       -5.9821499678  W2        1323            0.0000000000
      3968      1323  TIP3      H1              2.2084094676      -13.4747948050       -5.5501399678  W2        1323            0.0000000000
      3969      1323  TIP3      H2              1.5786794676      -13.1990648050       -6.8989499678  W2        1323            0.0000000000
      3970      1324  TIP3      OH2             6.7111994676      -11.3748348050       -6.7669999678  W2        1324            0.0000000000
      3971      1324  TIP3      H1              7.3272994676      -11.9012948050       -6.2575999678  W2        1324            0.0000000000
      3972      1324  TIP3      H2              6.1250794676      -12.0149648050       -7.1706399678  W2        1324            0.0000000000
      3973      1325  TIP3      OH2            17.6935094676      -14.7379748050       -1.2476499678  W2        1325            0.0000000000
      3974      1325  TIP3      H1             17.0049694676      -14.0799048050       -1.3429899678  W2        1325            0.0000000000
      3975      1325  TIP3      H2             17.7089694676      -14.9351848050       -0.3111099678  W2        1325            0.0000000000
      3976      1326  TIP3      OH2             3.7447894676      -16.4037048050       -2.6702099678  W2        1326            0.0000000000
      3977      1326  TIP3      H1              3.5259594676      -15.8736448050       -3.4366099678  W2        1326            0.0000000000
      3978      1326  TIP3      H2              3.0768794676      -16.1771548050       -2.0230699678  W2        1326            0.0000000000
      3979      1327  TIP3      OH2            11.1137694676       -6.9035948050       -9.1262999678  W2        1327            0.0000000000
      3980      1327  TIP3      H1             10.8182794676       -7.2263648050       -9.9776099678  W2        1327            0.0000000000
      3981      1327  TIP3      H2             10.7895494676       -6.0039248050       -9.0850399678  W2        1327            0.0000000000
      3982      1328  TIP3      OH2             6.3139294676       -8.7281348050       -2.3828399678  W2        1328            0.0000000000
      3983      1328  TIP3      H1              5.5738394676       -8.1299848050       -2.2793199678  W2        1328            0.0000000000
      3984      1328  TIP3      H2              7.0278794676       -8.1741748050       -2.6984799678  W2        1328            0.0000000000
      3985      1329  TIP3      OH2            14.4207094676      -15.9000548050       -6.3628699678  W2        1329            0.0000000000
      3986      1329  TIP3      H1             14.2055094676      -16.6657148050       -5.8302699678  W2        1329            0.0000000000
      3987      1329  TIP3      H2             15.0764494676      -15.4275948050       -5.8500199678  W2        1329            0.0000000000
      3988      1330  TIP3      OH2             3.3385194676      -14.5115248050       -4.7179899678  W2        1330            0.0000000000
      3989      1330  TIP3      H1              3.9521494676      -13.8787648050       -4.3447499678  W2        1330            0.0000000000
      3990      1330  TIP3      H2              3.8505894676      -14.9840248050       -5.3742999678  W2        1330            0.0000000000
      3991      1331  TIP3      OH2             4.7213594676       -6.7638348050       -1.5956899678  W2        1331            0.0000000000
      3992      1331  TIP3      H1              4.7161194676       -5.8844848050       -1.9737599678  W2        1331            0.0000000000
      3993      1331  TIP3      H2              3.8677694676       -6.8474248050       -1.1706999678  W2        1331            0.0000000000
      3994      1332  TIP3      OH2             0.8424494676       -7.0930448050      -10.8137599678  W2        1332            0.0000000000
      3995      1332  TIP3      H1              0.5705394676       -6.8639448050      -11.7024699678  W2        1332            0.0000000000
      3996      1332  TIP3      H2              0.8880194676       -6.2551648050      -10.3532299678  W2        1332            0.0000000000
      3997      1333  TIP3      OH2            14.4674194676       -5.4714548050       -4.1009099678  W2        1333            0.0000000000
      3998      1333  TIP3      H1             13.5257894676       -5.4130648050       -3.9392199678  W2        1333            0.0000000000
      3999      1333  TIP3      H2             14.7440294676       -4.5654048050       -4.2379399678  W2        1333            0.0000000000
      4000      1334  TIP3      OH2            14.7681194676      -17.1849248050       -2.6835199678  W2        1334            0.0000000000
      4001      1334  TIP3      H1             14.0320394676      -16.5742148050       -2.7213899678  W2        1334            0.0000000000
      4002      1334  TIP3      H2             15.4515194676      -16.7700248050       -3.2098799678  W2        1334            0.0000000000
      4003      1335  TIP3      OH2             7.7712594676      -19.0981948050       -5.2177199678  W2        1335            0.0000000000
      4004      1335  TIP3      H1              7.6536794676      -20.0465948050       -5.2718899678  W2        1335            0.0000000000
      4005      1335  TIP3      H2              6.9162694676      -18.7655848050       -4.9446099678  W2        1335            0.0000000000
      4006      1336  TIP3      OH2            12.7195394676       -3.6901048050       -7.4757499678  W2        1336            0.0000000000
      4007      1336  TIP3      H1             13.1447694676       -4.3973148050       -7.9607899678  W2        1336            0.0000000000
      4008      1336  TIP3      H2             13.0365394676       -2.8888348050       -7.8925299678  W2        1336            0.0000000000
      4009      1337  TIP3      OH2            13.8791894676       -5.7892548050       -8.9670899678  W2        1337            0.0000000000
      4010      1337  TIP3      H1             13.6216694676       -6.4792448050       -9.5784999678  W2        1337            0.0000000000
      4011      1337  TIP3      H2             13.9502694676       -6.2321348050       -8.1214999678  W2        1337            0.0000000000
      4012      1338  TIP3      OH2            15.5652094676       -7.2225848050       -0.4897399678  W2        1338            0.0000000000
      4013      1338  TIP3      H1             15.7048394676       -7.8143348050       -1.2290399678  W2        1338            0.0000000000
      4014      1338  TIP3      H2             15.7324894676       -6.3499948050       -0.8458599678  W2        1338            0.0000000000
      4015      1339  TIP3      OH2            10.0377494676      -10.2606348050      -10.7171399678  W2        1339            0.0000000000
      4016      1339  TIP3      H1              9.3262994676       -9.7256648050      -11.0690899678  W2        1339            0.0000000000
      4017      1339  TIP3      H2             10.7287094676      -10.2054248050      -11.3772499678  W2        1339            0.0000000000
      4018      1340  TIP3      OH2            10.0916694676      -11.8032048050      -13.6786399678  W2        1340            0.0000000000
      4019      1340  TIP3      H1             10.7926594676      -11.7805148050      -13.0272399678  W2        1340            0.0000000000
      4020      1340  TIP3      H2             10.3939594676      -12.4312348050      -14.3347099678  W2        1340            0.0000000000
      4021      1341  TIP3      OH2            17.4071394676      -10.8827848050       -2.4236999678  W2        1341            0.0000000000
      4022      1341  TIP3      H1             16.7545494676      -10.1882248050       -2.3346099678  W2        1341            0.0000000000
      4023      1341  TIP3      H2             17.8721694676      -10.6726948050       -3.2335399678  W2        1341            0.0000000000
      4024      1342  TIP3      OH2            13.4435194676      -10.0513048050       -9.7655499678  W2        1342            0.0000000000
      4025      1342  TIP3      H1             12.7116194676       -9.8229348050       -9.1924899678  W2        1342            0.0000000000
      4026      1342  TIP3      H2             13.8907394676      -10.7650348050       -9.3107999678  W2        1342            0.0000000000
      4027      1343  TIP3      OH2            13.3408694676      -11.8770448050       -0.6978499678  W2        1343            0.0000000000
      4028      1343  TIP3      H1             13.4207794676      -11.1136048050       -0.1259999678  W2        1343            0.0000000000
      4029      1343  TIP3      H2             12.7396394676      -11.5978048050       -1.3883399678  W2        1343            0.0000000000
      4030      1344  TIP3      OH2             5.0888894676       -9.4206848050       -7.8830499678  W2        1344            0.0000000000
      4031      1344  TIP3      H1              4.7584094676       -9.7913448050       -8.7013499678  W2        1344            0.0000000000
      4032      1344  TIP3      H2              5.6772994676      -10.0912848050       -7.5362199678  W2        1344            0.0000000000
      4033      1345  TIP3      OH2             6.4556394676       -5.9926248050       -5.2018299678  W2        1345            0.0000000000
      4034      1345  TIP3      H1              6.3607694676       -6.5713148050       -5.9583699678  W2        1345            0.0000000000
      4035      1345  TIP3      H2              7.1849994676       -6.3640548050       -4.7055499678  W2        1345            0.0000000000
      4036      1346  TIP3      OH2             5.4554394676      -10.6521248050       -4.2495499678  W2        1346            0.0000000000
      4037      1346  TIP3      H1              6.0206894676      -10.5307048050       -5.0124299678  W2        1346            0.0000000000
      4038      1346  TIP3      H2              5.7743294676      -10.0146248050       -3.6106999678  W2        1346            0.0000000000
      4039      1347  TIP3      OH2            11.7646594676       -5.1489348050       -3.5154999678  W2        1347            0.0000000000
      4040      1347  TIP3      H1             11.5243194676       -4.4866248050       -2.8675799678  W2        1347            0.0000000000
      4041      1347  TIP3      H2             11.5664794676       -5.9834148050       -3.0905399678  W2        1347            0.0000000000
      4042      1348  TIP3      OH2             6.3355094676       -6.2528548050        0.4676400322  W2        1348            0.0000000000
      4043      1348  TIP3      H1              6.0242594676       -5.4705348050        0.9229600322  W2        1348            0.0000000000
      4044      1348  TIP3      H2              5.6855294676       -6.4059448050       -0.2181599678  W2        1348            0.0000000000
      4045      1349  TIP3      OH2            12.3144694676      -10.8890148050      -12.0804299678  W2        1349            0.0000000000
      4046      1349  TIP3      H1             12.8940194676      -10.7389848050      -11.3335399678  W2        1349            0.0000000000
      4047      1349  TIP3      H2             12.7284694676      -10.4182748050      -12.8037899678  W2        1349            0.0000000000
      4048      1350  TIP3      OH2             3.2554994676      -10.0547448050       -0.3037899678  W2        1350            0.0000000000
      4049      1350  TIP3      H1              3.3258194676       -9.4040648050        0.3947100322  W2        1350            0.0000000000
      4050      1350  TIP3      H2              2.3647194676       -9.9519948050       -0.6386999678  W2        1350            0.0000000000
      4051      1351  TIP3      OH2            10.0409594676       -4.1521648050       -8.6451199678  W2        1351            0.0000000000
      4052      1351  TIP3      H1             10.5147194676       -3.8565348050       -7.8676999678  W2        1351            0.0000000000
      4053      1351  TIP3      H2              9.4778894676       -3.4140048050       -8.8781599678  W2        1351            0.0000000000
      4054      1352  TIP3      OH2             4.5750994676       -4.1813548050        1.2310200322  W2        1352            0.0000000000
      4055      1352  TIP3      H1              4.5826294676       -4.3173848050        0.2835700322  W2        1352            0.0000000000
      4056      1352  TIP3      H2              3.6591394676       -4.2985448050        1.4830200322  W2        1352            0.0000000000
      4057      1353  TIP3      OH2            16.0133094676      -19.1389748050      -12.2674599678  W2        1353            0.0000000000
      4058      1353  TIP3      H1             15.1133794676      -19.0000748050      -11.9723999678  W2        1353            0.0000000000
      4059      1353  TIP3      H2             16.2651494676      -18.3075148050      -12.6692899678  W2        1353            0.0000000000
      4060      1354  TIP3      OH2             4.0791594676      -10.3512548050      -10.2937699678  W2        1354            0.0000000000
      4061      1354  TIP3      H1              3.7872894676       -9.5830848050      -10.7846399678  W2        1354            0.0000000000
      4062      1354  TIP3      H2              3.4046794676      -11.0106348050      -10.4566299678  W2        1354            0.0000000000
      4063      1355  TIP3      OH2            17.2024494676       -4.7727348050      -13.8910699678  W2        1355            0.0000000000
      4064      1355  TIP3      H1             17.2757994676       -3.8337148050      -13.7205399678  W2        1355            0.0000000000
      4065      1355  TIP3      H2             18.1079594676       -5.0778748050      -13.9473399678  W2        1355            0.0000000000
      4066      1356  TIP3      OH2             0.1721694676       -7.9883348050       -1.4787899678  W2        1356            0.0000000000
      4067      1356  TIP3      H1             -0.3289905324       -8.0163948050       -2.2938199678  W2        1356            0.0000000000
      4068      1356  TIP3      H2              0.1775394676       -8.8940148050       -1.1690599678  W2        1356            0.0000000000
      4069      1357  TIP3      OH2            -0.0775605324       -5.2079548050       -4.5947699678  W2        1357            0.0000000000
      4070      1357  TIP3      H1              0.8684994676       -5.3522548050       -4.6138199678  W2        1357            0.0000000000
      4071      1357  TIP3      H2             -0.1899305324       -4.4236748050       -4.0576499678  W2        1357            0.0000000000
      4072      1358  TIP3      OH2            18.1202894676       -4.5419848050        1.0876000322  W2        1358            0.0000000000
      4073      1358  TIP3      H1             18.0709694676       -5.4971748050        1.0503600322  W2        1358            0.0000000000
      4074      1358  TIP3      H2             17.2935194676       -4.2744548050        1.4889800322  W2        1358            0.0000000000
      4075      1359  TIP3      OH2             9.0986894676       -4.9680648050       -0.0362599678  W2        1359            0.0000000000
      4076      1359  TIP3      H1              9.1861494676       -4.1416048050        0.4386500322  W2        1359            0.0000000000
      4077      1359  TIP3      H2              8.2351994676       -5.2976848050        0.2126700322  W2        1359            0.0000000000
      4078      1360  TIP3      OH2             9.5132694676       -1.1956948050      -10.2301999678  W2        1360            0.0000000000
      4079      1360  TIP3      H1              9.4378694676       -1.3169748050      -11.1766799678  W2        1360            0.0000000000
      4080      1360  TIP3      H2              9.5461394676       -0.2464248050      -10.1117399678  W2        1360            0.0000000000
      4081      1361  TIP3      OH2             3.1666494676       -2.4069948050       -8.4492999678  W2        1361            0.0000000000
      4082      1361  TIP3      H1              3.3186894676       -2.7549548050       -7.5706499678  W2        1361            0.0000000000
      4083      1361  TIP3      H2              2.3156894676       -2.7632648050       -8.7045799678  W2        1361            0.0000000000
      4084      1362  TIP3      OH2            12.6148694676       -2.0416748050      -13.2279599678  W2        1362            0.0000000000
      4085      1362  TIP3      H1             12.9897094676       -2.7860648050      -13.6986999678  W2        1362            0.0000000000
      4086      1362  TIP3      H2             12.6192394676       -2.3116148050      -12.3096299678  W2        1362            0.0000000000
      4087      1363  TIP3      OH2            12.2836794676       -2.1159648050      -10.4787399678  W2        1363            0.0000000000
      4088      1363  TIP3      H1             11.3486594676       -2.0157748050      -10.3000399678  W2        1363            0.0000000000
      4089      1363  TIP3      H2             12.5638694676       -2.8253648050       -9.9004199678  W2        1363            0.0000000000
      4090      1364  TIP3      OH2            15.2722694676      -13.0487348050        1.5678200322  W2        1364            0.0000000000
      4091      1364  TIP3      H1             14.8649494676      -12.5681748050        0.8471500322  W2        1364            0.0000000000
      4092      1364  TIP3      H2             15.3128394676      -13.9541348050        1.2599000322  W2        1364            0.0000000000
      4093      1365  TIP3      OH2             2.4212194676       -6.6647948050       -0.4355099678  W2        1365            0.0000000000
      4094      1365  TIP3      H1              2.6373494676       -7.0262348050        0.4240700322  W2        1365            0.0000000000
      4095      1365  TIP3      H2              1.5656894676       -7.0394148050       -0.6451599678  W2        1365            0.0000000000
      4096      1366  TIP3      OH2             5.0400194676      -18.1947448050       -4.4400899678  W2        1366            0.0000000000
      4097      1366  TIP3      H1              4.1783894676      -18.2819248050       -4.8477999678  W2        1366            0.0000000000
      4098      1366  TIP3      H2              5.0175894676      -17.3387348050       -4.0123299678  W2        1366            0.0000000000
      4099      1367  TIP3      OH2             9.7027994676      -18.4727048050       -1.0653899678  W2        1367            0.0000000000
      4100      1367  TIP3      H1             10.1231094676      -18.8879948050       -0.3123299678  W2        1367            0.0000000000
      4101      1367  TIP3      H2              8.7697594676      -18.6513748050       -0.9481899678  W2        1367            0.0000000000
      4102      1368  TIP3      OH2            13.0292894676      -14.7171848050       -0.2119399678  W2        1368            0.0000000000
      4103      1368  TIP3      H1             12.5152394676      -14.8429648050        0.5856600322  W2        1368            0.0000000000
      4104      1368  TIP3      H2             12.8737594676      -13.8048748050       -0.4563199678  W2        1368            0.0000000000
      4105      1369  TIP3      OH2            13.7917794676       -9.8561848050      -14.4506399678  W2        1369            0.0000000000
      4106      1369  TIP3      H1             13.8338594676      -10.0787948050      -15.3806399678  W2        1369            0.0000000000
      4107      1369  TIP3      H2             14.6409894676       -9.4574748050      -14.2606499678  W2        1369            0.0000000000
      4108      1370  TIP3      OH2             9.3645294676      -15.9803648050      -13.7803099678  W2        1370            0.0000000000
      4109      1370  TIP3      H1              9.1110094676      -15.9612048050      -12.8574999678  W2        1370            0.0000000000
      4110      1370  TIP3      H2              9.1077394676      -16.8518248050      -14.0816899678  W2        1370            0.0000000000
      4111      1371  TIP3      OH2             5.1310294676      -13.2292948050       -3.3450699678  W2        1371            0.0000000000
      4112      1371  TIP3      H1              4.4892394676      -13.2695648050       -2.6360599678  W2        1371            0.0000000000
      4113      1371  TIP3      H2              5.1682294676      -12.3028248050       -3.5827699678  W2        1371            0.0000000000
      4114      1372  TIP3      OH2             5.1279394676      -13.0082848050       -8.4330699678  W2        1372            0.0000000000
      4115      1372  TIP3      H1              4.2352294676      -13.3486748050       -8.4916899678  W2        1372            0.0000000000
      4116      1372  TIP3      H2              5.5785994676      -13.3851948050       -9.1887499678  W2        1372            0.0000000000
      4117      1373  TIP3      OH2            10.6634894676      -12.5922548050       -9.6159899678  W2        1373            0.0000000000
      4118      1373  TIP3      H1             10.2545194676      -11.7773948050       -9.9075099678  W2        1373            0.0000000000
      4119      1373  TIP3      H2             11.3841094676      -12.7322448050      -10.2302799678  W2        1373            0.0000000000
      4120      1374  TIP3      OH2             9.7656494676      -12.4166148050        1.8720800322  W2        1374            0.0000000000
      4121      1374  TIP3      H1              9.2030294676      -13.1214548050        2.1928600322  W2        1374            0.0000000000
      4122      1374  TIP3      H2             10.5919894676      -12.5374248050        2.3398400322  W2        1374            0.0000000000
      4123      1375  TIP3      OH2            11.6682594676      -13.1462148050       -6.8020199678  W2        1375            0.0000000000
      4124      1375  TIP3      H1             11.4727094676      -12.5405348050       -7.5169599678  W2        1375            0.0000000000
      4125      1375  TIP3      H2             11.8495194676      -13.9796948050       -7.2363899678  W2        1375            0.0000000000
      4126      1376  TIP3      OH2             2.8810794676      -12.9089448050       -1.4778699678  W2        1376            0.0000000000
      4127      1376  TIP3      H1              2.8430194676      -12.5087848050       -0.6091599678  W2        1376            0.0000000000
      4128      1376  TIP3      H2              2.3901894676      -13.7257048050       -1.3875799678  W2        1376            0.0000000000
      4129      1377  TIP3      OH2             6.2468194676      -15.5347148050      -14.6792699678  W2        1377            0.0000000000
      4130      1377  TIP3      H1              5.8158894676      -15.9797048050      -13.9495299678  W2        1377            0.0000000000
      4131      1377  TIP3      H2              5.5286894676      -15.1630848050      -15.1915199678  W2        1377            0.0000000000
      4132      1378  TIP3      OH2            -0.5108405324      -15.7927648050       -7.6273999678  W2        1378            0.0000000000
      4133      1378  TIP3      H1              0.1199294676      -15.8215548050       -6.9080099678  W2        1378            0.0000000000
      4134      1378  TIP3      H2             -0.0614105324      -16.2178948050       -8.3578099678  W2        1378            0.0000000000
      4135      1379  TIP3      OH2             0.7633694676      -15.0465648050      -12.2033599678  W2        1379            0.0000000000
      4136      1379  TIP3      H1              1.2375394676      -14.4555748050      -12.7882699678  W2        1379            0.0000000000
      4137      1379  TIP3      H2              0.0460094676      -14.5162748050      -11.8563499678  W2        1379            0.0000000000
      4138      1380  TIP3      OH2            10.9321794676      -11.5080848050       -2.1307799678  W2        1380            0.0000000000
      4139      1380  TIP3      H1             11.2556594676      -12.1391148050       -2.7737299678  W2        1380            0.0000000000
      4140      1380  TIP3      H2             10.4921094676      -12.0428648050       -1.4700399678  W2        1380            0.0000000000
      4141      1381  TIP3      OH2             7.7094694676      -15.5805348050       -7.3466599678  W2        1381            0.0000000000
      4142      1381  TIP3      H1              6.7985794676      -15.5238548050       -7.0580599678  W2        1381            0.0000000000
      4143      1381  TIP3      H2              8.2147594676      -15.6409848050       -6.5359399678  W2        1381            0.0000000000
      4144      1382  TIP3      OH2             2.5378094676      -13.9519048050       -8.5198999678  W2        1382            0.0000000000
      4145      1382  TIP3      H1              1.6486094676      -13.8523548050       -8.8599399678  W2        1382            0.0000000000
      4146      1382  TIP3      H2              2.8342994676      -14.7936048050       -8.8661099678  W2        1382            0.0000000000
      4147      1383  TIP3      OH2             6.1909894676      -13.9516448050      -10.8634399678  W2        1383            0.0000000000
      4148      1383  TIP3      H1              7.1225394676      -13.8226448050      -10.6851299678  W2        1383            0.0000000000
      4149      1383  TIP3      H2              5.9760194676      -13.2822148050      -11.5129699678  W2        1383            0.0000000000
      4150      1384  TIP3      OH2            12.1146594676      -16.3459048050       -4.0824799678  W2        1384            0.0000000000
      4151      1384  TIP3      H1             11.4378194676      -16.2145948050       -3.4185099678  W2        1384            0.0000000000
      4152      1384  TIP3      H2             11.6291494676      -16.5009548050       -4.8927099678  W2        1384            0.0000000000
      4153      1385  TIP3      OH2             4.8650094676      -12.7574248050      -13.2968299678  W2        1385            0.0000000000
      4154      1385  TIP3      H1              4.3225194676      -13.1370448050      -13.9880699678  W2        1385            0.0000000000
      4155      1385  TIP3      H2              5.6984994676      -12.5629548050      -13.7254199678  W2        1385            0.0000000000
      4156      1386  TIP3      OH2            15.4021694676       -0.6743648050        2.1942800322  W2        1386            0.0000000000
      4157      1386  TIP3      H1             15.6020394676       -0.2501748050        1.3598100322  W2        1386            0.0000000000
      4158      1386  TIP3      H2             16.0575394676       -0.3305448050        2.8013200322  W2        1386            0.0000000000
      4159      1387  TIP3      OH2             3.0001494676       -8.2002348050        1.8023300322  W2        1387            0.0000000000
      4160      1387  TIP3      H1              3.7323894676       -7.9456448050        2.3637800322  W2        1387            0.0000000000
      4161      1387  TIP3      H2              2.2200194676       -7.9956948050        2.3178700322  W2        1387            0.0000000000
      4162      1388  TIP3      OH2             9.0294394676      -12.7932348050       -5.4596999678  W2        1388            0.0000000000
      4163      1388  TIP3      H1              9.5937794676      -13.3395748050       -6.0067399678  W2        1388            0.0000000000
      4164      1388  TIP3      H2              8.8817794676      -13.3150448050       -4.6709399678  W2        1388            0.0000000000
      4165      1389  TIP3      OH2             4.0314094676      -16.6566248050       -9.0412199678  W2        1389            0.0000000000
      4166      1389  TIP3      H1              3.7143594676      -17.5590948050       -9.0766799678  W2        1389            0.0000000000
      4167      1389  TIP3      H2              4.8128194676      -16.6548848050       -9.5940599678  W2        1389            0.0000000000
      4168      1390  TIP3      OH2             7.6560294676      -14.4046248050       -3.0456599678  W2        1390            0.0000000000
      4169      1390  TIP3      H1              6.8205594676      -13.9506748050       -2.9354199678  W2        1390            0.0000000000
      4170      1390  TIP3      H2              8.1800894676      -14.1287748050       -2.2936699678  W2        1390            0.0000000000
      4171      1391  TIP3      OH2             8.2002894676       -8.1918548050      -11.3610199678  W2        1391            0.0000000000
      4172      1391  TIP3      H1              7.4553894676       -8.6993248050      -11.6832299678  W2        1391            0.0000000000
      4173      1391  TIP3      H2              8.0660094676       -8.1430548050      -10.4145399678  W2        1391            0.0000000000
      4174      1392  TIP3      OH2            15.3501794676       -9.0590348050       -2.5742599678  W2        1392            0.0000000000
      4175      1392  TIP3      H1             15.9920594676       -8.6024048050       -3.1180399678  W2        1392            0.0000000000
      4176      1392  TIP3      H2             14.5198694676       -8.9457948050       -3.0368499678  W2        1392            0.0000000000
      4177      1393  TIP3      OH2            12.0979694676      -15.3778648050      -13.1617599678  W2        1393            0.0000000000
      4178      1393  TIP3      H1             11.1593894676      -15.2663048050      -13.3128799678  W2        1393            0.0000000000
      4179      1393  TIP3      H2             12.3951794676      -14.5211748050      -12.8551899678  W2        1393            0.0000000000
      4180      1394  TIP3      OH2             9.7194994676       -8.0075248050       -0.1241099678  W2        1394            0.0000000000
      4181      1394  TIP3      H1              9.3741094676       -8.3892848050        0.6828500322  W2        1394            0.0000000000
      4182      1394  TIP3      H2              9.5195094676       -7.0741648050       -0.0528199678  W2        1394            0.0000000000
      4183      1395  TIP3      OH2            12.8163194676      -13.5105948050      -11.5010199678  W2        1395            0.0000000000
      4184      1395  TIP3      H1             13.7082194676      -13.6480948050      -11.1818999678  W2        1395            0.0000000000
      4185      1395  TIP3      H2             12.8726794676      -12.7199848050      -12.0376699678  W2        1395            0.0000000000
      4186      1396  TIP3      OH2             3.3251194676       -8.8968548050       -5.5912299678  W2        1396            0.0000000000
      4187      1396  TIP3      H1              4.0698394676       -8.8992848050       -6.1925799678  W2        1396            0.0000000000
      4188      1396  TIP3      H2              3.4027794676       -9.7204748050       -5.1097199678  W2        1396            0.0000000000
      4189      1397  TIP3      OH2            10.3256994676       -6.7334248050      -12.3355599678  W2        1397            0.0000000000
      4190      1397  TIP3      H1             10.0305394676       -5.9066348050      -11.9540799678  W2        1397            0.0000000000
      4191      1397  TIP3      H2              9.6226994676       -7.3527348050      -12.1394199678  W2        1397            0.0000000000
      4192      1398  TIP3      OH2             0.3330894676      -10.4361648050       -0.2763799678  W2        1398            0.0000000000
      4193      1398  TIP3      H1              0.5559494676      -10.8542048050        0.5553700322  W2        1398            0.0000000000
      4194      1398  TIP3      H2             -0.2689005324      -11.0486648050       -0.6990999678  W2        1398            0.0000000000
      4195      1399  TIP3      OH2             7.3495794676      -10.9191748050        1.9365900322  W2        1399            0.0000000000
      4196      1399  TIP3      H1              7.0536594676      -11.0848748050        1.0415000322  W2        1399            0.0000000000
      4197      1399  TIP3      H2              8.2810994676      -11.1391448050        1.9259800322  W2        1399            0.0000000000
      4198      1400  TIP3      OH2            11.9698594676       -5.5459748050       -0.1736099678  W2        1400            0.0000000000
      4199      1400  TIP3      H1             11.0692894676       -5.3627148050       -0.4412199678  W2        1400            0.0000000000
      4200      1400  TIP3      H2             12.0039694676       -5.2870448050        0.7472700322  W2        1400            0.0000000000
      4201      1401  TIP3      OH2            17.7011894676      -13.3011848050      -11.8063499678  W2        1401            0.0000000000
      4202      1401  TIP3      H1             17.1468194676      -13.6973848050      -12.4785999678  W2        1401            0.0000000000
      4203      1401  TIP3      H2             17.8015494676      -12.3906648050      -12.0840199678  W2        1401            0.0000000000
      4204      1402  TIP3      OH2            17.6643894676       -7.5010148050        1.0308000322  W2        1402            0.0000000000
      4205      1402  TIP3      H1             16.8132394676       -7.2626348050        0.6634400322  W2        1402            0.0000000000
      4206      1402  TIP3      H2             18.2547294676       -7.5176948050        0.2775100322  W2        1402            0.0000000000
      4207      1403  TIP3      OH2            15.9963594676       -4.5151448050      -11.3411399678  W2        1403            0.0000000000
      4208      1403  TIP3      H1             15.6234694676       -5.3407648050      -11.0320799678  W2        1403            0.0000000000
      4209      1403  TIP3      H2             16.2737094676       -4.6982048050      -12.2387999678  W2        1403            0.0000000000
      4210      1404  TIP3      OH2            13.1567494676       -9.7071948050       -4.3199499678  W2        1404            0.0000000000
      4211      1404  TIP3      H1             12.2284394676       -9.9390048050       -4.3470199678  W2        1404            0.0000000000
      4212      1404  TIP3      H2             13.6078594676      -10.4842148050       -4.6500699678  W2        1404            0.0000000000
      4213      1405  TIP3      OH2             5.7000594676       -5.3790348050       -8.1870799678  W2        1405            0.0000000000
      4214      1405  TIP3      H1              6.2272794676       -4.6055948050       -8.3871999678  W2        1405            0.0000000000
      4215      1405  TIP3      H2              4.8199094676       -5.1541148050       -8.4886799678  W2        1405            0.0000000000
      4216      1406  TIP3      OH2             1.4548294676      -10.5166248050      -13.5998399678  W2        1406            0.0000000000
      4217      1406  TIP3      H1              2.0708194676       -9.8899048050      -13.2203599678  W2        1406            0.0000000000
      4218      1406  TIP3      H2              0.5930894676      -10.2006448050      -13.3281899678  W2        1406            0.0000000000
      4219      1407  TIP3      OH2             7.1272894676       -7.7160448050       -8.6106499678  W2        1407            0.0000000000
      4220      1407  TIP3      H1              6.8862894676       -6.7906048050       -8.5691199678  W2        1407            0.0000000000
      4221      1407  TIP3      H2              6.3866494676       -8.1749148050       -8.2142599678  W2        1407            0.0000000000
      4222      1408  TIP3      OH2             7.6419494676       -3.5666848050       -2.2955399678  W2        1408            0.0000000000
      4223      1408  TIP3      H1              8.0044194676       -2.7121248050       -2.5290999678  W2        1408            0.0000000000
      4224      1408  TIP3      H2              8.1734694676       -3.8585248050       -1.5549099678  W2        1408            0.0000000000
      4225      1409  TIP3      OH2             5.8103694676       -2.6942848050       -9.0654299678  W2        1409            0.0000000000
      4226      1409  TIP3      H1              4.8604194676       -2.5885448050       -9.0140999678  W2        1409            0.0000000000
      4227      1409  TIP3      H2              6.1621794676       -1.8735448050       -8.7206799678  W2        1409            0.0000000000
      4228      1410  TIP3      OH2            11.1860294676       -7.4676148050       -2.5949799678  W2        1410            0.0000000000
      4229      1410  TIP3      H1             10.7601594676       -7.6954448050       -1.7685799678  W2        1410            0.0000000000
      4230      1410  TIP3      H2             11.7666094676       -8.2064348050       -2.7774499678  W2        1410            0.0000000000
      4231      1411  TIP3      OH2            13.3889194676       -6.5385648050      -13.5210799678  W2        1411            0.0000000000
      4232      1411  TIP3      H1             13.7422294676       -6.9185848050      -12.7167299678  W2        1411            0.0000000000
      4233      1411  TIP3      H2             12.4402694676       -6.6320848050      -13.4341499678  W2        1411            0.0000000000
      4234      1412  TIP3      OH2            13.8444494676       -2.9156648050       -0.1254999678  W2        1412            0.0000000000
      4235      1412  TIP3      H1             13.2427694676       -3.4713748050       -0.6208699678  W2        1412            0.0000000000
      4236      1412  TIP3      H2             14.1258194676       -2.2486848050       -0.7517599678  W2        1412            0.0000000000
      4237      1413  TIP3      OH2            17.8923594676       -2.0593148050      -13.3200599678  W2        1413            0.0000000000
      4238      1413  TIP3      H1             18.6361494676       -1.4732648050      -13.4598999678  W2        1413            0.0000000000
      4239      1413  TIP3      H2             17.1981694676       -1.4907348050      -12.9868199678  W2        1413            0.0000000000
      4240      1414  TIP3      OH2             1.9670394676      -15.6828948050       -0.7182399678  W2        1414            0.0000000000
      4241      1414  TIP3      H1              1.0742694676      -15.3443548050       -0.7858399678  W2        1414            0.0000000000
      4242      1414  TIP3      H2              1.8683194676      -16.5382848050       -0.3001599678  W2        1414            0.0000000000
      4243      1415  TIP3      OH2            14.2548494676       -7.8663648050      -11.2942899678  W2        1415            0.0000000000
      4244      1415  TIP3      H1             13.9776094676       -8.5944348050      -10.7381799678  W2        1415            0.0000000000
      4245      1415  TIP3      H2             15.1821494676       -7.7471648050      -11.0890299678  W2        1415            0.0000000000
      4246      1416  TIP3      OH2             1.6182394676       -3.8784548050       -2.2832999678  W2        1416            0.0000000000
      4247      1416  TIP3      H1              1.8352694676       -4.8102148050       -2.3143299678  W2        1416            0.0000000000
      4248      1416  TIP3      H2              1.8645894676       -3.6039548050       -1.4000199678  W2        1416            0.0000000000
      4249      1417  TIP3      OH2             7.4796994676       -5.4269548050      -15.0740799678  W2        1417            0.0000000000
      4250      1417  TIP3      H1              7.7186794676       -6.1751448050      -15.6211899678  W2        1417            0.0000000000
      4251      1417  TIP3      H2              7.2108294676       -5.8147848050      -14.2412999678  W2        1417            0.0000000000
      4252      1418  TIP3      OH2             6.4167594676       -5.8565748050      -12.6178199678  W2        1418            0.0000000000
      4253      1418  TIP3      H1              6.5635594676       -6.3765948050      -11.8277299678  W2        1418            0.0000000000
      4254      1418  TIP3      H2              6.4139294676       -4.9498148050      -12.3112299678  W2        1418            0.0000000000
      4255      1419  TIP3      OH2             2.8698694676       -8.6042448050      -12.1072799678  W2        1419            0.0000000000
      4256      1419  TIP3      H1              2.1837994676       -8.2519948050      -11.5403099678  W2        1419            0.0000000000
      4257      1419  TIP3      H2              3.3926594676       -7.8412848050      -12.3538499678  W2        1419            0.0000000000
      4258      1420  TIP3      OH2            10.7013794676      -15.9418648050       -1.8283799678  W2        1420            0.0000000000
      4259      1420  TIP3      H1             11.4001694676      -15.8679948050       -1.1784099678  W2        1420            0.0000000000
      4260      1420  TIP3      H2             10.3205194676      -16.8063648050       -1.6740899678  W2        1420            0.0000000000
      4261      1421  TIP3      OH2            11.4858694676      -16.2896948050      -10.7311499678  W2        1421            0.0000000000
      4262      1421  TIP3      H1             11.7056994676      -15.8181548050      -11.5346099678  W2        1421            0.0000000000
      4263      1421  TIP3      H2             12.0442694676      -15.8954348050      -10.0610899678  W2        1421            0.0000000000
      4264      1422  TIP3      OH2             9.1544794676       -4.1592148050      -11.8683999678  W2        1422            0.0000000000
      4265      1422  TIP3      H1              8.3380894676       -3.6622448050      -11.8159699678  W2        1422            0.0000000000
      4266      1422  TIP3      H2              9.6841094676       -3.6838648050      -12.5085199678  W2        1422            0.0000000000
      4267      1423  TIP3      OH2             8.6858594676      -14.5618148050       -9.8963099678  W2        1423            0.0000000000
      4268      1423  TIP3      H1              9.4981194676      -14.0574948050       -9.8501399678  W2        1423            0.0000000000
      4269      1423  TIP3      H2              8.4411594676      -14.7068448050       -8.9823499678  W2        1423            0.0000000000
      4270      1424  TIP3      OH2             9.2214994676      -13.5755448050       -0.7116499678  W2        1424            0.0000000000
      4271      1424  TIP3      H1              9.3405294676      -13.0020048050        0.0453900322  W2        1424            0.0000000000
      4272      1424  TIP3      H2              9.8769594676      -14.2636048050       -0.5968699678  W2        1424            0.0000000000
      4273      1425  TIP3      OH2             9.5695294676      -17.4805148050       -8.9581999678  W2        1425            0.0000000000
      4274      1425  TIP3      H1              9.2228794676      -16.8634548050       -8.3137699678  W2        1425            0.0000000000
      4275      1425  TIP3      H2             10.2282194676      -16.9799448050       -9.4396499678  W2        1425            0.0000000000
      4276      1426  TIP3      OH2             6.4927894676       -3.1154948050      -11.8867099678  W2        1426            0.0000000000
      4277      1426  TIP3      H1              6.6536594676       -2.3157448050      -12.3874499678  W2        1426            0.0000000000
      4278      1426  TIP3      H2              6.2955694676       -2.8088948050      -11.0016499678  W2        1426            0.0000000000
      4279      1427  TIP3      OH2             5.2272294676      -16.4175748050      -12.2709499678  W2        1427            0.0000000000
      4280      1427  TIP3      H1              5.1437094676      -15.5292648050      -11.9243099678  W2        1427            0.0000000000
      4281      1427  TIP3      H2              6.1172594676      -16.6829048050      -12.0392699678  W2        1427            0.0000000000
      4282      1428  TIP3      OH2            15.4260794676      -15.6685148050        0.1233200322  W2        1428            0.0000000000
      4283      1428  TIP3      H1             14.5096594676      -15.4063448050        0.0356900322  W2        1428            0.0000000000
      4284      1428  TIP3      H2             15.7615794676      -15.6716148050       -0.7731499678  W2        1428            0.0000000000
      4285      1429  TIP3      OH2            14.0281794676      -11.9184148050       -5.7809499678  W2        1429            0.0000000000
      4286      1429  TIP3      H1             13.2306194676      -12.3333948050       -6.1094499678  W2        1429            0.0000000000
      4287      1429  TIP3      H2             14.4732894676      -12.6090448050       -5.2898999678  W2        1429            0.0000000000
      4288      1430  TIP3      OH2             3.4857594676       -5.9903548050      -13.2104999678  W2        1430            0.0000000000
      4289      1430  TIP3      H1              4.0779094676       -5.2908748050      -12.9342599678  W2        1430            0.0000000000
      4290      1430  TIP3      H2              3.9450594676       -6.4234048050      -13.9300399678  W2        1430            0.0000000000
      4291      1431  TIP3      OH2             1.8016794676      -13.3260548050      -14.0945599678  W2        1431            0.0000000000
      4292      1431  TIP3      H1              1.7569394676      -12.3867448050      -13.9158599678  W2        1431            0.0000000000
      4293      1431  TIP3      H2              0.9139994676      -13.5615648050      -14.3643499678  W2        1431            0.0000000000
      4294      1432  TIP3      OH2            15.1146394676       -2.6621648050       -4.1585999678  W2        1432            0.0000000000
      4295      1432  TIP3      H1             14.9590694676       -1.9837248050       -4.8156699678  W2        1432            0.0000000000
      4296      1432  TIP3      H2             16.0472794676       -2.5902348050       -3.9555399678  W2        1432            0.0000000000
      4297      1433  TIP3      OH2             2.6098794676      -18.5443948050       -5.4214599678  W2        1433            0.0000000000
      4298      1433  TIP3      H1              2.3808594676      -18.4851448050       -6.3489599678  W2        1433            0.0000000000
      4299      1433  TIP3      H2              2.1672194676      -19.3358448050       -5.1150499678  W2        1433            0.0000000000
      4300      1434  TIP3      OH2             1.5402094676       -4.6036848050       -9.2608799678  W2        1434            0.0000000000
      4301      1434  TIP3      H1              0.7080694676       -4.1314148050       -9.2337399678  W2        1434            0.0000000000
      4302      1434  TIP3      H2              2.0860394676       -4.0939248050       -9.8595699678  W2        1434            0.0000000000
      4303      1435  TIP3      OH2             0.8285794676       -1.9913148050        2.0689200322  W2        1435            0.0000000000
      4304      1435  TIP3      H1              1.3687994676       -2.2079148050        2.8288400322  W2        1435            0.0000000000
      4305      1435  TIP3      H2              0.3473794676       -2.7967148050        1.8791700322  W2        1435            0.0000000000
      4306      1436  TIP3      OH2             5.4259194676       -3.0718748050        3.6893400322  W2        1436            0.0000000000
      4307      1436  TIP3      H1              6.1936394676       -3.5307948050        4.0302600322  W2        1436            0.0000000000
      4308      1436  TIP3      H2              5.4045394676       -3.2978948050        2.7594600322  W2        1436            0.0000000000
      4309      1437  TIP3      OH2             9.5178794676       -3.5638148050      -14.9354799678  W2        1437            0.0000000000
      4310      1437  TIP3      H1              8.8739794676       -4.1949548050      -14.6141099678  W2        1437            0.0000000000
      4311      1437  TIP3      H2             10.2797094676       -4.0950148050      -15.1671299678  W2        1437            0.0000000000
      4312      1438  TIP3      OH2            12.0027894676       -4.6917648050        2.4184900322  W2        1438            0.0000000000
      4313      1438  TIP3      H1             11.6517394676       -5.5484648050        2.6615300322  W2        1438            0.0000000000
      4314      1438  TIP3      H2             12.7291094676       -4.5490948050        3.0253900322  W2        1438            0.0000000000
      4315      1439  TIP3      OH2            14.1221694676       -3.7468248050      -14.7016799678  W2        1439            0.0000000000
      4316      1439  TIP3      H1             14.4052094676       -4.5413048050      -14.2489899678  W2        1439            0.0000000000
      4317      1439  TIP3      H2             14.8619594676       -3.5137248050      -15.2625699678  W2        1439            0.0000000000
      4318      1440  TIP3      OH2             0.7355294676       -8.1809048050        3.0233500322  W2        1440            0.0000000000
      4319      1440  TIP3      H1              0.8795794676       -9.0828348050        2.7370200322  W2        1440            0.0000000000
      4320      1440  TIP3      H2             -0.0367305324       -7.8946948050        2.5355800322  W2        1440            0.0000000000
      4321      1441  TIP3      OH2             5.0768994676       -7.8373348050      -14.8441899678  W2        1441            0.0000000000
      4322      1441  TIP3      H1              5.1413094676       -8.6313748050      -14.3135499678  W2        1441            0.0000000000
      4323      1441  TIP3      H2              5.7298194676       -7.9560548050      -15.5339899678  W2        1441            0.0000000000
      4324      1442  TIP3      OH2             7.3911394676       -8.2110948050        2.4559900322  W2        1442            0.0000000000
      4325      1442  TIP3      H1              7.0625194676       -7.9402848050        1.5987300322  W2        1442            0.0000000000
      4326      1442  TIP3      H2              7.5429594676       -9.1521148050        2.3684900322  W2        1442            0.0000000000
      4327      1443  TIP3      OH2            10.4292394676       -6.7901648050      -15.1083899678  W2        1443            0.0000000000
      4328      1443  TIP3      H1             10.1606494676       -6.6099548050      -14.2074999678  W2        1443            0.0000000000
      4329      1443  TIP3      H2             10.2227994676       -7.7155448050      -15.2398099678  W2        1443            0.0000000000
      4330      1444  TIP3      OH2            13.1256594676       -8.2953648050       -0.1607799678  W2        1444            0.0000000000
      4331      1444  TIP3      H1             13.8711394676       -7.7069948050       -0.2803799678  W2        1444            0.0000000000
      4332      1444  TIP3      H2             12.3683394676       -7.7133948050       -0.0974699678  W2        1444            0.0000000000
      4333      1445  TIP3      OH2             1.5681794676      -10.9805748050        2.4432800322  W2        1445            0.0000000000
      4334      1445  TIP3      H1              1.9762994676      -11.8379148050        2.3223400322  W2        1445            0.0000000000
      4335      1445  TIP3      H2              1.3079394676      -10.9664448050        3.3643100322  W2        1445            0.0000000000
      4336      1446  TIP3      OH2             6.2262794676       -9.8647148050      -12.5383899678  W2        1446            0.0000000000
      4337      1446  TIP3      H1              5.7664794676      -10.3488848050      -11.8525399678  W2        1446            0.0000000000
      4338      1446  TIP3      H2              6.4811494676      -10.5331748050      -13.1743399678  W2        1446            0.0000000000
      4339      1447  TIP3      OH2             5.5152094676      -11.9720048050       -0.1824299678  W2        1447            0.0000000000
      4340      1447  TIP3      H1              4.8968194676      -11.2973448050        0.0980400322  W2        1447            0.0000000000
      4341      1447  TIP3      H2              5.8593294676      -11.6506148050       -1.0158099678  W2        1447            0.0000000000
      4342      1448  TIP3      OH2             7.2973194676      -11.6215348050      -14.2760699678  W2        1448            0.0000000000
      4343      1448  TIP3      H1              7.1168194676      -11.7764148050      -15.2032399678  W2        1448            0.0000000000
      4344      1448  TIP3      H2              8.2473694676      -11.5136648050      -14.2312799678  W2        1448            0.0000000000
      4345      1449  TIP3      OH2            10.5350294676       -9.5004748050        3.0950500322  W2        1449            0.0000000000
      4346      1449  TIP3      H1             11.4881494676       -9.4165648050        3.0676500322  W2        1449            0.0000000000
      4347      1449  TIP3      H2             10.3744894676      -10.2122948050        3.7145400322  W2        1449            0.0000000000
      4348      1450  TIP3      OH2            16.6871494676       -9.2671148050      -14.8302599678  W2        1450            0.0000000000
      4349      1450  TIP3      H1             16.4136294676       -9.6915648050      -15.6434299678  W2        1450            0.0000000000
      4350      1450  TIP3      H2             16.7265594676       -8.3356648050      -15.0472199678  W2        1450            0.0000000000
      4351      1451  TIP3      OH2             5.8545794676      -14.6169248050        0.8998800322  W2        1451            0.0000000000
      4352      1451  TIP3      H1              6.0046694676      -15.3457948050        0.2978500322  W2        1451            0.0000000000
      4353      1451  TIP3      H2              5.8568194676      -13.8397548050        0.3411000322  W2        1451            0.0000000000
      4354      1452  TIP3      OH2             6.2671494676      -16.2473448050       -1.6073799678  W2        1452            0.0000000000
      4355      1452  TIP3      H1              6.8028994676      -15.7956748050       -2.2594499678  W2        1452            0.0000000000
      4356      1452  TIP3      H2              5.4151094676      -16.3553648050       -2.0299699678  W2        1452            0.0000000000
      4357      1453  TIP3      OH2             7.8489894676      -10.8077248050       -1.3678599678  W2        1453            0.0000000000
      4358      1453  TIP3      H1              8.5994694676      -10.9639748050       -1.9410799678  W2        1453            0.0000000000
      4359      1453  TIP3      H2              7.5098194676       -9.9560648050       -1.6433099678  W2        1453            0.0000000000
      4360      1454  TIP3      OH2            12.2646094676      -12.9925448050        3.6606700322  W2        1454            0.0000000000
      4361      1454  TIP3      H1             12.4567394676      -13.9236048050        3.5491200322  W2        1454            0.0000000000
      4362      1454  TIP3      H2             13.1222394676      -12.5675948050        3.6502100322  W2        1454            0.0000000000
      4363      1455  TIP3      OH2            13.5813294676      -10.2040248050        1.7379400322  W2        1455            0.0000000000
      4364      1455  TIP3      H1             13.2998294676       -9.4945648050        1.1603200322  W2        1455            0.0000000000
      4365      1455  TIP3      H2             14.5237594676      -10.2767248050        1.5870600322  W2        1455            0.0000000000
      4366      1456  TIP3      OH2             4.3332094676      -13.4185748050        2.8114400322  W2        1456            0.0000000000
      4367      1456  TIP3      H1              3.5661094676      -13.9510948050        2.6012000322  W2        1456            0.0000000000
      4368      1456  TIP3      H2              5.0121094676      -13.7285348050        2.2120700322  W2        1456            0.0000000000
      4369      1457  TIP3      OH2             7.0726994676      -18.7907748050       -1.1760199678  W2        1457            0.0000000000
      4370      1457  TIP3      H1              6.9746594676      -17.8444548050       -1.2813999678  W2        1457            0.0000000000
      4371      1457  TIP3      H2              6.3303194676      -19.1633948050       -1.6516699678  W2        1457            0.0000000000
      4372      1458  TIP3      OH2             8.3367494676      -14.4692348050        2.3878200322  W2        1458            0.0000000000
      4373      1458  TIP3      H1              8.1012894676      -14.6885648050        3.2893100322  W2        1458            0.0000000000
      4374      1458  TIP3      H2              7.5534394676      -14.6761148050        1.8780700322  W2        1458            0.0000000000
      4375      1459  TIP3      OH2            11.0524094676      -15.3418848050        1.4631700322  W2        1459            0.0000000000
      4376      1459  TIP3      H1             10.1049494676      -15.3099148050        1.5955000322  W2        1459            0.0000000000
      4377      1459  TIP3      H2             11.3650794676      -15.9671748050        2.1169900322  W2        1459            0.0000000000
      4378      1460  TIP3      OH2            12.6865594676      -16.7077748050        3.4683600322  W2        1460            0.0000000000
      4379      1460  TIP3      H1             12.5897394676      -17.6600448050        3.4625500322  W2        1460            0.0000000000
      4380      1460  TIP3      H2             12.3648694676      -16.4390948050        4.3289100322  W2        1460            0.0000000000
      4381      1461  TIP3      OH2             2.5134894676      -15.4981948050        2.5159100322  W2        1461            0.0000000000
      4382      1461  TIP3      H1              2.7252294676      -16.2045848050        1.9056600322  W2        1461            0.0000000000
      4383      1461  TIP3      H2              2.4022394676      -15.9355948050        3.3600300322  W2        1461            0.0000000000
      4384      1462  TIP3      OH2             7.2945094676      -19.4970348050        1.4952600322  W2        1462            0.0000000000
      4385      1462  TIP3      H1              8.0063494676      -20.1368148050        1.4811700322  W2        1462            0.0000000000
      4386      1462  TIP3      H2              7.1935494676      -19.2302048050        0.5815700322  W2        1462            0.0000000000
      4387      1463  TIP3      OH2             7.6482594676      -17.8141948050        3.5488900322  W2        1463            0.0000000000
      4388      1463  TIP3      H1              7.5164794676      -18.2898148050        2.7287400322  W2        1463            0.0000000000
      4389      1463  TIP3      H2              7.0489994676      -17.0698348050        3.4936000322  W2        1463            0.0000000000
      4390      1464  TIP3      OH2             7.1944894676       -0.9311648050      -13.2747099678  W2        1464            0.0000000000
      4391      1464  TIP3      H1              8.1275594676       -0.7732948050      -13.1308699678  W2        1464            0.0000000000
      4392      1464  TIP3      H2              6.9303694676       -0.2558648050      -13.8995599678  W2        1464            0.0000000000
      4393      1465  TIP3      OH2             0.7629794676       -6.2947848050      -13.7918999678  W2        1465            0.0000000000
      4394      1465  TIP3      H1              1.6768994676       -6.2158948050      -13.5185099678  W2        1465            0.0000000000
      4395      1465  TIP3      H2              0.7702894676       -6.9818248050      -14.4583399678  W2        1465            0.0000000000
      4396      1466  TIP3      OH2            -0.5879605324       -0.9019348050       -8.7145099678  W2        1466            0.0000000000
      4397      1466  TIP3      H1             -1.2352505324       -1.3637648050       -9.2473899678  W2        1466            0.0000000000
      4398      1466  TIP3      H2             -0.2335005324       -1.5736048050       -8.1318899678  W2        1466            0.0000000000
      4399      1467  TIP3      OH2             0.2819594676       -2.8212348050       -6.9098899678  W2        1467            0.0000000000
      4400      1467  TIP3      H1             -0.0523605324       -3.7015048050       -6.7378699678  W2        1467            0.0000000000
      4401      1467  TIP3      H2              0.5041994676       -2.4757348050       -6.0453299678  W2        1467            0.0000000000
      4402      1468  TIP3      OH2            17.8304394676       -2.0115948050       -3.9294099678  W2        1468            0.0000000000
      4403      1468  TIP3      H1             17.8091094676       -1.8267548050       -2.9904699678  W2        1468            0.0000000000
      4404      1468  TIP3      H2             18.5210594676       -1.4431948050       -4.2702699678  W2        1468            0.0000000000
      4405      1469  TIP3      OH2            17.3937294676       -2.4444848050       -1.0074999678  W2        1469            0.0000000000
      4406      1469  TIP3      H1             16.9065994676       -3.1800748050       -1.3787599678  W2        1469            0.0000000000
      4407      1469  TIP3      H2             17.9429994676       -2.8380948050       -0.3295599678  W2        1469            0.0000000000
      4408      1470  TIP3      OH2            15.8444594676       -6.6546748050        3.6305300322  W2        1470            0.0000000000
      4409      1470  TIP3      H1             14.9785694676       -6.7597048050        4.0247600322  W2        1470            0.0000000000
      4410      1470  TIP3      H2             16.2210494676       -5.8963448050        4.0770000322  W2        1470            0.0000000000
      4411      1471  TIP3      OH2            17.1454294676       -8.3983048050      -10.8552199678  W2        1471            0.0000000000
      4412      1471  TIP3      H1             17.9955694676       -7.9772148050      -10.7280599678  W2        1471            0.0000000000
      4413      1471  TIP3      H2             17.1509394676       -9.1382948050      -10.2480799678  W2        1471            0.0000000000
      4414      1472  TIP3      OH2            17.5399894676      -10.3445648050       -9.0316499678  W2        1472            0.0000000000
      4415      1472  TIP3      H1             16.8134494676      -10.8243048050       -8.6338899678  W2        1472            0.0000000000
      4416      1472  TIP3      H2             18.1213194676      -10.1390948050       -8.2994899678  W2        1472            0.0000000000
      4417      1473  TIP3      OH2            17.2991094676       -7.5598148050       -4.0838899678  W2        1473            0.0000000000
      4418      1473  TIP3      H1             18.1325294676       -7.9378148050       -4.3645299678  W2        1473            0.0000000000
      4419      1473  TIP3      H2             17.4111394676       -6.6166948050       -4.2029799678  W2        1473            0.0000000000
      4420      1474  TIP3      OH2            15.7853394676       -4.6820648050       -1.7770499678  W2        1474            0.0000000000
      4421      1474  TIP3      H1             15.1378694676       -4.3569148050       -1.1515299678  W2        1474            0.0000000000
      4422      1474  TIP3      H2             15.2677394676       -5.1222948050       -2.4512199678  W2        1474            0.0000000000
      4423      1475  TIP3      OH2            17.8082994676      -10.4437148050      -12.6405199678  W2        1475            0.0000000000
      4424      1475  TIP3      H1             17.2864094676      -10.0873048050      -13.3594299678  W2        1475            0.0000000000
      4425      1475  TIP3      H2             17.7752194676       -9.7689348050      -11.9624299678  W2        1475            0.0000000000
      4426      1476  TIP3      OH2            16.1571994676      -13.2041548050      -14.0898099678  W2        1476            0.0000000000
      4427      1476  TIP3      H1             16.2536394676      -12.5374548050      -14.7698399678  W2        1476            0.0000000000
      4428      1476  TIP3      H2             16.0171594676      -14.0195248050      -14.5712599678  W2        1476            0.0000000000
      4429      1477  TIP3      OH2            15.3266694676      -11.8239148050       -8.4687799678  W2        1477            0.0000000000
      4430      1477  TIP3      H1             15.1765494676      -12.7690548050       -8.4889999678  W2        1477            0.0000000000
      4431      1477  TIP3      H2             14.9731194676      -11.5427748050       -7.6248699678  W2        1477            0.0000000000
      4432      1478  TIP3      OH2             0.3619094676       -9.7456948050       -4.4583999678  W2        1478            0.0000000000
      4433      1478  TIP3      H1              0.5461994676       -9.8275248050       -5.3941099678  W2        1478            0.0000000000
      4434      1478  TIP3      H2              1.2111994676       -9.8699948050       -4.0347599678  W2        1478            0.0000000000
      4435      1479  TIP3      OH2            16.1829594676       -9.8535848050        1.1700500322  W2        1479            0.0000000000
      4436      1479  TIP3      H1             16.7656894676      -10.5883548050        1.3617700322  W2        1479            0.0000000000
      4437      1479  TIP3      H2             16.7468894676       -9.0815548050        1.2166300322  W2        1479            0.0000000000
      4438      1480  TIP3      OH2            17.6796694676      -11.9510048050        1.8545900322  W2        1480            0.0000000000
      4439      1480  TIP3      H1             16.8163394676      -12.3297948050        1.6890600322  W2        1480            0.0000000000
      4440      1480  TIP3      H2             18.2840394676      -12.6895248050        1.7801700322  W2        1480            0.0000000000
      4441      1481  TIP3      OH2            15.4045794676      -15.7961748050      -14.9722599678  W2        1481            0.0000000000
      4442      1481  TIP3      H1             16.0151594676      -16.1674948050      -14.3354399678  W2        1481            0.0000000000
      4443      1481  TIP3      H2             14.5677294676      -16.2174848050      -14.7762599678  W2        1481            0.0000000000
      4444      1482  TIP3      OH2            15.0371494676      -14.2413348050      -10.0062699678  W2        1482            0.0000000000
      4445      1482  TIP3      H1             15.3168594676      -15.1482948050       -9.8820999678  W2        1482            0.0000000000
      4446      1482  TIP3      H2             15.7963194676      -13.8071848050      -10.3953499678  W2        1482            0.0000000000
      4447      1483  TIP3      OH2            15.6489794676      -13.6595948050       -4.5703799678  W2        1483            0.0000000000
      4448      1483  TIP3      H1             16.5817794676      -13.4476048050       -4.6047799678  W2        1483            0.0000000000
      4449      1483  TIP3      H2             15.4137294676      -13.5583848050       -3.6480799678  W2        1483            0.0000000000
      4450      1484  TIP3      OH2            15.6781694676      -12.9230648050       -1.7944399678  W2        1484            0.0000000000
      4451      1484  TIP3      H1             14.8352994676      -12.6550248050       -1.4284599678  W2        1484            0.0000000000
      4452      1484  TIP3      H2             16.1205994676      -12.1008748050       -2.0053299678  W2        1484            0.0000000000
      4453      1485  TIP3      OH2            -0.0406105324      -14.4751948050        1.6824800322  W2        1485            0.0000000000
      4454      1485  TIP3      H1              0.8788794676      -14.5973648050        1.9187900322  W2        1485            0.0000000000
      4455      1485  TIP3      H2             -0.4901605324      -15.2252248050        2.0718300322  W2        1485            0.0000000000
      4456      1486  TIP3      OH2            17.9613294676      -18.9430448050        3.5590600322  W2        1486            0.0000000000
      4457      1486  TIP3      H1             18.3110294676      -19.5966948050        2.9535300322  W2        1486            0.0000000000
      4458      1486  TIP3      H2             18.1082794676      -18.1056348050        3.1193200322  W2        1486            0.0000000000
      4459      1487  TIP3      OH2            15.6506294676      -16.9784048050       -9.9580699678  W2        1487            0.0000000000
      4460      1487  TIP3      H1             15.8331294676      -17.4272548050       -9.1325699678  W2        1487            0.0000000000
      4461      1487  TIP3      H2             15.0509194676      -17.5629648050      -10.4216099678  W2        1487            0.0000000000
      4462      1488  TIP3      OH2             1.1806394676      -16.1630348050       -5.4262299678  W2        1488            0.0000000000
      4463      1488  TIP3      H1              1.6257994676      -16.9547848050       -5.1242599678  W2        1488            0.0000000000
      4464      1488  TIP3      H2              1.6469394676      -15.4465148050       -4.9956699678  W2        1488            0.0000000000
      4465      1489  TIP3      OH2            -0.5153305324      -13.1637348050       -4.3572099678  W2        1489            0.0000000000
      4466      1489  TIP3      H1             -0.0233505324      -13.3846848050       -5.1480099678  W2        1489            0.0000000000
      4467      1489  TIP3      H2             -0.1532405324      -12.3233948050       -4.0762599678  W2        1489            0.0000000000
      4468      1490  TIP3      OH2            17.4810494676      -16.8335848050        1.9081900322  W2        1490            0.0000000000
      4469      1490  TIP3      H1             16.5636194676      -16.5628748050        1.8725400322  W2        1490            0.0000000000
      4470      1490  TIP3      H2             17.6039894676      -17.3687448050        1.1241600322  W2        1490            0.0000000000
      4471      1491  TIP3      OH2            17.5172494676      -16.9105948050      -13.4300399678  W2        1491            0.0000000000
      4472      1491  TIP3      H1             17.9295094676      -17.6320248050      -13.9052399678  W2        1491            0.0000000000
      4473      1491  TIP3      H2             18.1988994676      -16.2411348050      -13.3716099678  W2        1491            0.0000000000
      4474      1492  TIP3      OH2            -0.2016805324      -16.9058248050      -10.3029699678  W2        1492            0.0000000000
      4475      1492  TIP3      H1             -1.1268405324      -16.6971648050      -10.4324199678  W2        1492            0.0000000000
      4476      1492  TIP3      H2              0.2523094676      -16.4217448050      -10.9927399678  W2        1492            0.0000000000
      4477      1493  TIP3      OH2            14.5690394676       -1.9216548050       -8.3572299678  W2        1493            0.0000000000
      4478      1493  TIP3      H1             15.2213294676       -2.2694448050       -8.9653199678  W2        1493            0.0000000000
      4479      1493  TIP3      H2             15.0794194676       -1.4333348050       -7.7112599678  W2        1493            0.0000000000
      4480      1494  TIP3      OH2            -0.2381405324      -18.1679248050       -1.9587199678  W2        1494            0.0000000000
      4481      1494  TIP3      H1             -0.9030905324      -18.4138948050       -1.3156299678  W2        1494            0.0000000000
      4482      1494  TIP3      H2             -0.6810105324      -17.5458848050       -2.5359199678  W2        1494            0.0000000000
      4483      1495  TIP3      OH2             1.9537894676       -4.9925148050        2.1858600322  W2        1495            0.0000000000
      4484      1495  TIP3      H1              1.1330394676       -4.8178648050        1.7253300322  W2        1495            0.0000000000
      4485      1495  TIP3      H2              1.7015694676       -5.0660448050        3.1063000322  W2        1495            0.0000000000
      4486      1496  TIP3      OH2             4.9080794676       -4.0183948050       -1.5557399678  W2        1496            0.0000000000
      4487      1496  TIP3      H1              4.4831894676       -3.2085448050       -1.8382799678  W2        1496            0.0000000000
      4488      1496  TIP3      H2              5.8123594676       -3.9329848050       -1.8577599678  W2        1496            0.0000000000
      4489      1497  TIP3      OH2             9.2192194676       -2.6193948050        1.4036300322  W2        1497            0.0000000000
      4490      1497  TIP3      H1              9.4039694676       -2.9527848050        2.2816600322  W2        1497            0.0000000000
      4491      1497  TIP3      H2             10.0656694676       -2.3095348050        1.0815500322  W2        1497            0.0000000000
      4492      1498  TIP3      OH2            11.5642594676       -1.3335048050        0.6477700322  W2        1498            0.0000000000
      4493      1498  TIP3      H1             12.2411494676       -1.9662748050        0.4076900322  W2        1498            0.0000000000
      4494      1498  TIP3      H2             11.8861394676       -0.9324548050        1.4551000322  W2        1498            0.0000000000
      4495      1499  TIP3      OH2            16.4816394676      -18.7439548050       -0.2727299678  W2        1499            0.0000000000
      4496      1499  TIP3      H1             15.6689894676      -18.4189248050       -0.6602599678  W2        1499            0.0000000000
      4497      1499  TIP3      H2             16.7144894676      -19.5041048050       -0.8058199678  W2        1499            0.0000000000
      4498      1500  TIP3      OH2             2.3097494676       -0.7620048050       -1.5082099678  W2        1500            0.0000000000
      4499      1500  TIP3      H1              1.5893894676       -0.3219048050       -1.9594399678  W2        1500            0.0000000000
      4500      1500  TIP3      H2              1.9441494676       -1.0125348050       -0.6598099678  W2        1500            0.0000000000
      4501      1501  TIP3      OH2             4.7770094676       -1.1616148050       -2.4784899678  W2        1501            0.0000000000
      4502      1501  TIP3      H1              3.9122294676       -1.0897648050       -2.0744799678  W2        1501            0.0000000000
      4503      1501  TIP3      H2              4.7219094676       -0.6148848050       -3.2622399678  W2        1501            0.0000000000
      4504      1502  TIP3      OH2             9.4875694676       -1.2737248050       -3.3028899678  W2        1502            0.0000000000
      4505      1502  TIP3      H1              9.0309694676       -0.7447548050       -3.9570499678  W2        1502            0.0000000000
      4506      1502  TIP3      H2              9.6503694676       -0.6705848050       -2.5776599678  W2        1502            0.0000000000
      4507      1503  TIP3      OH2            11.8151994676       -2.3957648050       -2.3578599678  W2        1503            0.0000000000
      4508      1503  TIP3      H1             10.9105694676       -2.2307448050       -2.6236499678  W2        1503            0.0000000000
      4509      1503  TIP3      H2             12.2440594676       -1.5425448050       -2.4235199678  W2        1503            0.0000000000
      4510      1504  TIP3      OH2            14.4193894676       -0.8258548050       -2.0630799678  W2        1504            0.0000000000
      4511      1504  TIP3      H1             14.2375894676        0.0900351950       -2.2735899678  W2        1504            0.0000000000
      4512      1504  TIP3      H2             14.5961694676       -1.2361448050       -2.9096199678  W2        1504            0.0000000000
      4513      1505  TIP3      OH2             1.7245594676       -2.1387548050       -4.5980299678  W2        1505            0.0000000000
      4514      1505  TIP3      H1              1.7061594676       -2.5642448050       -3.7407999678  W2        1505            0.0000000000
      4515      1505  TIP3      H2              2.5293494676       -2.4572548050       -5.0068099678  W2        1505            0.0000000000
      4516      1506  TIP3      OH2             3.8658694676       -3.4288848050       -5.9430399678  W2        1506            0.0000000000
      4517      1506  TIP3      H1              3.6469394676       -4.3451448050       -5.7734399678  W2        1506            0.0000000000
      4518      1506  TIP3      H2              4.6900894676       -3.2888448050       -5.4768999678  W2        1506            0.0000000000
      4519      1507  TIP3      OH2             6.4031194676       -2.9589548050       -5.0942399678  W2        1507            0.0000000000
      4520      1507  TIP3      H1              6.6156894676       -3.8470548050       -5.3811499678  W2        1507            0.0000000000
      4521      1507  TIP3      H2              6.4676294676       -2.9931848050       -4.1398399678  W2        1507            0.0000000000
      4522      1508  TIP3      OH2             9.9114894676      -17.2948948050       -5.9499099678  W2        1508            0.0000000000
      4523      1508  TIP3      H1              9.2371694676      -17.9243348050       -5.6943299678  W2        1508            0.0000000000
      4524      1508  TIP3      H2             10.4754094676      -17.7790048050       -6.5531199678  W2        1508            0.0000000000
      4525      1509  TIP3      OH2            15.0542094676      -19.1874948050       -5.8371999678  W2        1509            0.0000000000
      4526      1509  TIP3      H1             15.6579694676      -18.6399548050       -6.3390999678  W2        1509            0.0000000000
      4527      1509  TIP3      H2             14.1844094676      -18.8684548050       -6.0777899678  W2        1509            0.0000000000
      4528      1510  TIP3      OH2            16.7812494676      -18.0486248050       -7.5041099678  W2        1510            0.0000000000
      4529      1510  TIP3      H1             17.3929994676      -18.5630548050       -8.0307499678  W2        1510            0.0000000000
      4530      1510  TIP3      H2             17.1635894676      -17.1714148050       -7.4806699678  W2        1510            0.0000000000
      4531      1511  TIP3      OH2             2.2382394676      -18.6608648050       -8.1279199678  W2        1511            0.0000000000
      4532      1511  TIP3      H1              1.4612194676      -18.8953748050       -8.6353299678  W2        1511            0.0000000000
      4533      1511  TIP3      H2              2.7685994676      -19.4576548050       -8.1191199678  W2        1511            0.0000000000
      4534      1512  TIP3      OH2             1.0745794676      -18.8630548050      -12.3243099678  W2        1512            0.0000000000
      4535      1512  TIP3      H1              1.5136494676      -18.2520048050      -12.9159599678  W2        1512            0.0000000000
      4536      1512  TIP3      H2              0.4408194676      -18.3246448050      -11.8503099678  W2        1512            0.0000000000
      4537      1513  TIP3      OH2             6.8174994676      -18.7341548050       -8.3146099678  W2        1513            0.0000000000
      4538      1513  TIP3      H1              7.6918394676      -18.3457248050       -8.3441799678  W2        1513            0.0000000000
      4539      1513  TIP3      H2              6.6815794676      -18.9493748050       -7.3918899678  W2        1513            0.0000000000
      4540      1514  TIP3      OH2            12.3743394676      -18.7041748050       -6.6654399678  W2        1514            0.0000000000
      4541      1514  TIP3      H1             12.4504994676      -18.6090148050       -7.6148399678  W2        1514            0.0000000000
      4542      1514  TIP3      H2             12.0992594676      -19.6118848050       -6.5365299678  W2        1514            0.0000000000
      4543      1515  TIP3      OH2            13.7275994676      -18.6783948050      -10.9729399678  W2        1515            0.0000000000
      4544      1515  TIP3      H1             13.0247094676      -18.0634748050      -11.1827999678  W2        1515            0.0000000000
      4545      1515  TIP3      H2             13.2827394676      -19.5157248050      -10.8418499678  W2        1515            0.0000000000
      4546      1516  TIP3      OH2             0.9755294676       -2.9148348050      -11.4267999678  W2        1516            0.0000000000
      4547      1516  TIP3      H1              0.2905194676       -2.9529448050      -12.0942899678  W2        1516            0.0000000000
      4548      1516  TIP3      H2              0.9792494676       -2.0020748050      -11.1385899678  W2        1516            0.0000000000
      4549      1517  TIP3      OH2             2.9354894676      -16.9469048050      -13.8818999678  W2        1517            0.0000000000
      4550      1517  TIP3      H1              3.4268294676      -17.5766648050      -14.4093499678  W2        1517            0.0000000000
      4551      1517  TIP3      H2              3.5591194676      -16.6509648050      -13.2187799678  W2        1517            0.0000000000
      4552      1518  TIP3      OH2             7.9614994676      -16.6537548050      -11.4248499678  W2        1518            0.0000000000
      4553      1518  TIP3      H1              8.1396294676      -17.3004348050      -10.7419899678  W2        1518            0.0000000000
      4554      1518  TIP3      H2              7.9081194676      -15.8199848050      -10.9577399678  W2        1518            0.0000000000
      4555      1519  TIP3      OH2             9.8398794676       -1.7053448050      -13.0291799678  W2        1519            0.0000000000
      4556      1519  TIP3      H1             10.7058994676       -1.3386048050      -13.2073599678  W2        1519            0.0000000000
      4557      1519  TIP3      H2              9.5931594676       -2.1445448050      -13.8430999678  W2        1519            0.0000000000
      4558      1520  TIP3      OH2            16.5488394676       -2.1423148050      -10.3500699678  W2        1520            0.0000000000
      4559      1520  TIP3      H1             16.3545494676       -2.8901048050      -10.9151099678  W2        1520            0.0000000000
      4560      1520  TIP3      H2             16.5098494676       -1.3843048050      -10.9332799678  W2        1520            0.0000000000
      4561      1521  TIP3      OH2             2.1960394676      -18.1466748050        1.3897000322  W2        1521            0.0000000000
      4562      1521  TIP3      H1              1.8298594676      -18.9124148050        1.8321700322  W2        1521            0.0000000000
      4563      1521  TIP3      H2              3.1088894676      -18.1176548050        1.6762100322  W2        1521            0.0000000000
      4564      1522  TIP3      OH2             4.1691194676      -18.7962348050        2.9254100322  W2        1522            0.0000000000
      4565      1522  TIP3      H1              5.0674794676      -19.0702148050        2.7407500322  W2        1522            0.0000000000
      4566      1522  TIP3      H2              3.7824294676      -19.5386348050        3.3896700322  W2        1522            0.0000000000
      4567      1523  TIP3      OH2             2.7936494676       -1.9947548050      -14.4015899678  W2        1523            0.0000000000
      4568      1523  TIP3      H1              2.5261094676       -1.7084648050      -13.5282799678  W2        1523            0.0000000000
      4569      1523  TIP3      H2              3.5649094676       -2.5408348050      -14.2493399678  W2        1523            0.0000000000
      4570      1524  TIP3      OH2            12.5903494676      -19.4637048050        3.1076900322  W2        1524            0.0000000000
      4571      1524  TIP3      H1             12.6670694676      -19.8896348050        3.9614600322  W2        1524            0.0000000000
      4572      1524  TIP3      H2             13.4840094676      -19.4502348050        2.7650400322  W2        1524            0.0000000000
      4573      1525  TIP3      OH2            15.7664594676       -3.3910748050        1.8001100322  W2        1525            0.0000000000
      4574      1525  TIP3      H1             14.9846494676       -3.5772748050        1.2801700322  W2        1525            0.0000000000
      4575      1525  TIP3      H2             15.6944494676       -2.4616448050        2.0173600322  W2        1525            0.0000000000
      4576      1526  TIP3      OH2            30.1724994676       -9.5046348050       -8.1691699678  W2        1526            0.0000000000
      4577      1526  TIP3      H1             30.2616094676       -8.5608148050       -8.3014599678  W2        1526            0.0000000000
      4578      1526  TIP3      H2             29.5342594676       -9.7799948050       -8.8272299678  W2        1526            0.0000000000
      4579      1527  TIP3      OH2            29.1056294676      -10.2495648050       -4.7503499678  W2        1527            0.0000000000
      4580      1527  TIP3      H1             29.0673794676      -10.8959348050       -4.0453899678  W2        1527            0.0000000000
      4581      1527  TIP3      H2             28.7832794676      -10.7161248050       -5.5214799678  W2        1527            0.0000000000
      4582      1528  TIP3      OH2            21.4741294676      -10.6353548050       -3.1573599678  W2        1528            0.0000000000
      4583      1528  TIP3      H1             21.5153394676      -11.2610248050       -2.4341199678  W2        1528            0.0000000000
      4584      1528  TIP3      H2             22.1768994676      -10.0114948050       -2.9753199678  W2        1528            0.0000000000
      4585      1529  TIP3      OH2            32.8116494676       -7.3105248050       -6.4488399678  W2        1529            0.0000000000
      4586      1529  TIP3      H1             32.3709194676       -8.0309248050       -5.9982799678  W2        1529            0.0000000000
      4587      1529  TIP3      H2             32.7986194676       -6.5898048050       -5.8190699678  W2        1529            0.0000000000
      4588      1530  TIP3      OH2            22.3974394676       -6.1854648050       -4.6224499678  W2        1530            0.0000000000
      4589      1530  TIP3      H1             22.0279594676       -6.9874148050       -4.9920199678  W2        1530            0.0000000000
      4590      1530  TIP3      H2             23.3385494676       -6.3539748050       -4.5761099678  W2        1530            0.0000000000
      4591      1531  TIP3      OH2            19.0074894676      -12.5252048050       -9.2295699678  W2        1531            0.0000000000
      4592      1531  TIP3      H1             18.5598294676      -11.6793348050       -9.2479199678  W2        1531            0.0000000000
      4593      1531  TIP3      H2             18.4466094676      -13.1047848050       -9.7450599678  W2        1531            0.0000000000
      4594      1532  TIP3      OH2            19.7180994676      -10.3632448050       -7.1037699678  W2        1532            0.0000000000
      4595      1532  TIP3      H1             19.9314494676      -11.1330848050       -6.5764699678  W2        1532            0.0000000000
      4596      1532  TIP3      H2             20.4558594676      -10.2735748050       -7.7070099678  W2        1532            0.0000000000
      4597      1533  TIP3      OH2            29.9231994676       -2.2063548050       -6.2367999678  W2        1533            0.0000000000
      4598      1533  TIP3      H1             30.5428394676       -2.8828848050       -6.5098799678  W2        1533            0.0000000000
      4599      1533  TIP3      H2             29.7149394676       -2.4242748050       -5.3283099678  W2        1533            0.0000000000
      4600      1534  TIP3      OH2            27.4950694676       -7.8174248050       -4.3442499678  W2        1534            0.0000000000
      4601      1534  TIP3      H1             27.7988594676       -8.5032848050       -4.9388399678  W2        1534            0.0000000000
      4602      1534  TIP3      H2             28.2164694676       -7.6985548050       -3.7264499678  W2        1534            0.0000000000
      4603      1535  TIP3      OH2            36.1580494676      -16.2158948050       -3.4836299678  W2        1535            0.0000000000
      4604      1535  TIP3      H1             36.2072694676      -15.6057748050       -2.7477199678  W2        1535            0.0000000000
      4605      1535  TIP3      H2             36.5835594676      -15.7548048050       -4.2065199678  W2        1535            0.0000000000
      4606      1536  TIP3      OH2            30.6357694676      -13.4231848050       -4.0167699678  W2        1536            0.0000000000
      4607      1536  TIP3      H1             30.7783594676      -14.3694848050       -3.9966099678  W2        1536            0.0000000000
      4608      1536  TIP3      H2             30.5296694676      -13.2162048050       -4.9452799678  W2        1536            0.0000000000
      4609      1537  TIP3      OH2            23.7905994676      -15.3215448050       -6.7442899678  W2        1537            0.0000000000
      4610      1537  TIP3      H1             23.8337094676      -14.4616948050       -7.1626599678  W2        1537            0.0000000000
      4611      1537  TIP3      H2             23.3330094676      -15.8740748050       -7.3779699678  W2        1537            0.0000000000
      4612      1538  TIP3      OH2            31.5128694676      -15.1909848050       -8.3434599678  W2        1538            0.0000000000
      4613      1538  TIP3      H1             32.1592994676      -15.5196648050       -7.7186999678  W2        1538            0.0000000000
      4614      1538  TIP3      H2             32.0228094676      -14.6730848050       -8.9663199678  W2        1538            0.0000000000
      4615      1539  TIP3      OH2            20.4107494676      -12.9249648050       -5.9821499678  W2        1539            0.0000000000
      4616      1539  TIP3      H1             21.0644094676      -13.4747948050       -5.5501399678  W2        1539            0.0000000000
      4617      1539  TIP3      H2             20.4346794676      -13.1990648050       -6.8989499678  W2        1539            0.0000000000
      4618      1540  TIP3      OH2            25.5671994676      -11.3748348050       -6.7669999678  W2        1540            0.0000000000
      4619      1540  TIP3      H1             26.1832994676      -11.9012948050       -6.2575999678  W2        1540            0.0000000000
      4620      1540  TIP3      H2             24.9810794676      -12.0149648050       -7.1706399678  W2        1540            0.0000000000
      4621      1541  TIP3      OH2            36.5495094676      -14.7379748050       -1.2476499678  W2        1541            0.0000000000
      4622      1541  TIP3      H1             35.8609694676      -14.0799048050       -1.3429899678  W2        1541            0.0000000000
      4623      1541  TIP3      H2             36.5649694676      -14.9351848050       -0.3111099678  W2        1541            0.0000000000
      4624      1542  TIP3      OH2            22.6007894676      -16.4037048050       -2.6702099678  W2        1542            0.0000000000
      4625      1542  TIP3      H1             22.3819594676      -15.8736448050       -3.4366099678  W2        1542            0.0000000000
      4626      1542  TIP3      H2             21.9328794676      -16.1771548050       -2.0230699678  W2        1542            0.0000000000
      4627      1543  TIP3      OH2            29.9697694676       -6.9035948050       -9.1262999678  W2        1543            0.0000000000
      4628      1543  TIP3      H1             29.6742794676       -7.2263648050       -9.9776099678  W2        1543            0.0000000000
      4629      1543  TIP3      H2             29.6455494676       -6.0039248050       -9.0850399678  W2        1543            0.0000000000
      4630      1544  TIP3      OH2            25.1699294676       -8.7281348050       -2.3828399678  W2        1544            0.0000000000
      4631      1544  TIP3      H1             24.4298394676       -8.1299848050       -2.2793199678  W2        1544            0.0000000000
      4632      1544  TIP3      H2             25.8838794676       -8.1741748050       -2.6984799678  W2        1544            0.0000000000
      4633      1545  TIP3      OH2            33.2767094676      -15.9000548050       -6.3628699678  W2        1545            0.0000000000
      4634      1545  TIP3      H1             33.0615094676      -16.6657148050       -5.8302699678  W2        1545            0.0000000000
      4635      1545  TIP3      H2             33.9324494676      -15.4275948050       -5.8500199678  W2        1545            0.0000000000
      4636      1546  TIP3      OH2            22.1945194676      -14.5115248050       -4.7179899678  W2        1546            0.0000000000
      4637      1546  TIP3      H1             22.8081494676      -13.8787648050       -4.3447499678  W2        1546            0.0000000000
      4638      1546  TIP3      H2             22.7065894676      -14.9840248050       -5.3742999678  W2        1546            0.0000000000
      4639      1547  TIP3      OH2            23.5773594676       -6.7638348050       -1.5956899678  W2        1547            0.0000000000
      4640      1547  TIP3      H1             23.5721194676       -5.8844848050       -1.9737599678  W2        1547            0.0000000000
      4641      1547  TIP3      H2             22.7237694676       -6.8474248050       -1.1706999678  W2        1547            0.0000000000
      4642      1548  TIP3      OH2            19.6984494676       -7.0930448050      -10.8137599678  W2        1548            0.0000000000
      4643      1548  TIP3      H1             19.4265394676       -6.8639448050      -11.7024699678  W2        1548            0.0000000000
      4644      1548  TIP3      H2             19.7440194676       -6.2551648050      -10.3532299678  W2        1548            0.0000000000
      4645      1549  TIP3      OH2            33.3234194676       -5.4714548050       -4.1009099678  W2        1549            0.0000000000
      4646      1549  TIP3      H1             32.3817894676       -5.4130648050       -3.9392199678  W2        1549            0.0000000000
      4647      1549  TIP3      H2             33.6000294676       -4.5654048050       -4.2379399678  W2        1549            0.0000000000
      4648      1550  TIP3      OH2            33.6241194676      -17.1849248050       -2.6835199678  W2        1550            0.0000000000
      4649      1550  TIP3      H1             32.8880394676      -16.5742148050       -2.7213899678  W2        1550            0.0000000000
      4650      1550  TIP3      H2             34.3075194676      -16.7700248050       -3.2098799678  W2        1550            0.0000000000
      4651      1551  TIP3      OH2            26.6272594676      -19.0981948050       -5.2177199678  W2        1551            0.0000000000
      4652      1551  TIP3      H1             26.5096794676      -20.0465948050       -5.2718899678  W2        1551            0.0000000000
      4653      1551  TIP3      H2             25.7722694676      -18.7655848050       -4.9446099678  W2        1551            0.0000000000
      4654      1552  TIP3      OH2            31.5755394676       -3.6901048050       -7.4757499678  W2        1552            0.0000000000
      4655      1552  TIP3      H1             32.0007694676       -4.3973148050       -7.9607899678  W2        1552            0.0000000000
      4656      1552  TIP3      H2             31.8925394676       -2.8888348050       -7.8925299678  W2        1552            0.0000000000
      4657      1553  TIP3      OH2            32.7351894676       -5.7892548050       -8.9670899678  W2        1553            0.0000000000
      4658      1553  TIP3      H1             32.4776694676       -6.4792448050       -9.5784999678  W2        1553            0.0000000000
      4659      1553  TIP3      H2             32.8062694676       -6.2321348050       -8.1214999678  W2        1553            0.0000000000
      4660      1554  TIP3      OH2            34.4212094676       -7.2225848050       -0.4897399678  W2        1554            0.0000000000
      4661      1554  TIP3      H1             34.5608394676       -7.8143348050       -1.2290399678  W2        1554            0.0000000000
      4662      1554  TIP3      H2             34.5884894676       -6.3499948050       -0.8458599678  W2        1554            0.0000000000
      4663      1555  TIP3      OH2            28.8937494676      -10.2606348050      -10.7171399678  W2        1555            0.0000000000
      4664      1555  TIP3      H1             28.1822994676       -9.7256648050      -11.0690899678  W2        1555            0.0000000000
      4665      1555  TIP3      H2             29.5847094676      -10.2054248050      -11.3772499678  W2        1555            0.0000000000
      4666      1556  TIP3      OH2            28.9476694676      -11.8032048050      -13.6786399678  W2        1556            0.0000000000
      4667      1556  TIP3      H1             29.6486594676      -11.7805148050      -13.0272399678  W2        1556            0.0000000000
      4668      1556  TIP3      H2             29.2499594676      -12.4312348050      -14.3347099678  W2        1556            0.0000000000
      4669      1557  TIP3      OH2            36.2631394676      -10.8827848050       -2.4236999678  W2        1557            0.0000000000
      4670      1557  TIP3      H1             35.6105494676      -10.1882248050       -2.3346099678  W2        1557            0.0000000000
      4671      1557  TIP3      H2             36.7281694676      -10.6726948050       -3.2335399678  W2        1557            0.0000000000
      4672      1558  TIP3      OH2            32.2995194676      -10.0513048050       -9.7655499678  W2        1558            0.0000000000
      4673      1558  TIP3      H1             31.5676194676       -9.8229348050       -9.1924899678  W2        1558            0.0000000000
      4674      1558  TIP3      H2             32.7467394676      -10.7650348050       -9.3107999678  W2        1558            0.0000000000
      4675      1559  TIP3      OH2            32.1968694676      -11.8770448050       -0.6978499678  W2        1559            0.0000000000
      4676      1559  TIP3      H1             32.2767794676      -11.1136048050       -0.1259999678  W2        1559            0.0000000000
      4677      1559  TIP3      H2             31.5956394676      -11.5978048050       -1.3883399678  W2        1559            0.0000000000
      4678      1560  TIP3      OH2            23.9448894676       -9.4206848050       -7.8830499678  W2        1560            0.0000000000
      4679      1560  TIP3      H1             23.6144094676       -9.7913448050       -8.7013499678  W2        1560            0.0000000000
      4680      1560  TIP3      H2             24.5332994676      -10.0912848050       -7.5362199678  W2        1560            0.0000000000
      4681      1561  TIP3      OH2            25.3116394676       -5.9926248050       -5.2018299678  W2        1561            0.0000000000
      4682      1561  TIP3      H1             25.2167694676       -6.5713148050       -5.9583699678  W2        1561            0.0000000000
      4683      1561  TIP3      H2             26.0409994676       -6.3640548050       -4.7055499678  W2        1561            0.0000000000
      4684      1562  TIP3      OH2            24.3114394676      -10.6521248050       -4.2495499678  W2        1562            0.0000000000
      4685      1562  TIP3      H1             24.8766894676      -10.5307048050       -5.0124299678  W2        1562            0.0000000000
      4686      1562  TIP3      H2             24.6303294676      -10.0146248050       -3.6106999678  W2        1562            0.0000000000
      4687      1563  TIP3      OH2            30.6206594676       -5.1489348050       -3.5154999678  W2        1563            0.0000000000
      4688      1563  TIP3      H1             30.3803194676       -4.4866248050       -2.8675799678  W2        1563            0.0000000000
      4689      1563  TIP3      H2             30.4224794676       -5.9834148050       -3.0905399678  W2        1563            0.0000000000
      4690      1564  TIP3      OH2            25.1915094676       -6.2528548050        0.4676400322  W2        1564            0.0000000000
      4691      1564  TIP3      H1             24.8802594676       -5.4705348050        0.9229600322  W2        1564            0.0000000000
      4692      1564  TIP3      H2             24.5415294676       -6.4059448050       -0.2181599678  W2        1564            0.0000000000
      4693      1565  TIP3      OH2            31.1704694676      -10.8890148050      -12.0804299678  W2        1565            0.0000000000
      4694      1565  TIP3      H1             31.7500194676      -10.7389848050      -11.3335399678  W2        1565            0.0000000000
      4695      1565  TIP3      H2             31.5844694676      -10.4182748050      -12.8037899678  W2        1565            0.0000000000
      4696      1566  TIP3      OH2            22.1114994676      -10.0547448050       -0.3037899678  W2        1566            0.0000000000
      4697      1566  TIP3      H1             22.1818194676       -9.4040648050        0.3947100322  W2        1566            0.0000000000
      4698      1566  TIP3      H2             21.2207194676       -9.9519948050       -0.6386999678  W2        1566            0.0000000000
      4699      1567  TIP3      OH2            28.8969594676       -4.1521648050       -8.6451199678  W2        1567            0.0000000000
      4700      1567  TIP3      H1             29.3707194676       -3.8565348050       -7.8676999678  W2        1567            0.0000000000
      4701      1567  TIP3      H2             28.3338894676       -3.4140048050       -8.8781599678  W2        1567            0.0000000000
      4702      1568  TIP3      OH2            23.4310994676       -4.1813548050        1.2310200322  W2        1568            0.0000000000
      4703      1568  TIP3      H1             23.4386294676       -4.3173848050        0.2835700322  W2        1568            0.0000000000
      4704      1568  TIP3      H2             22.5151394676       -4.2985448050        1.4830200322  W2        1568            0.0000000000
      4705      1569  TIP3      OH2            34.8693094676      -19.1389748050      -12.2674599678  W2        1569            0.0000000000
      4706      1569  TIP3      H1             33.9693794676      -19.0000748050      -11.9723999678  W2        1569            0.0000000000
      4707      1569  TIP3      H2             35.1211494676      -18.3075148050      -12.6692899678  W2        1569            0.0000000000
      4708      1570  TIP3      OH2            22.9351594676      -10.3512548050      -10.2937699678  W2        1570            0.0000000000
      4709      1570  TIP3      H1             22.6432894676       -9.5830848050      -10.7846399678  W2        1570            0.0000000000
      4710      1570  TIP3      H2             22.2606794676      -11.0106348050      -10.4566299678  W2        1570            0.0000000000
      4711      1571  TIP3      OH2            36.0584494676       -4.7727348050      -13.8910699678  W2        1571            0.0000000000
      4712      1571  TIP3      H1             36.1317994676       -3.8337148050      -13.7205399678  W2        1571            0.0000000000
      4713      1571  TIP3      H2             36.9639594676       -5.0778748050      -13.9473399678  W2        1571            0.0000000000
      4714      1572  TIP3      OH2            19.0281694676       -7.9883348050       -1.4787899678  W2        1572            0.0000000000
      4715      1572  TIP3      H1             18.5270094676       -8.0163948050       -2.2938199678  W2        1572            0.0000000000
      4716      1572  TIP3      H2             19.0335394676       -8.8940148050       -1.1690599678  W2        1572            0.0000000000
      4717      1573  TIP3      OH2            18.7784394676       -5.2079548050       -4.5947699678  W2        1573            0.0000000000
      4718      1573  TIP3      H1             19.7244994676       -5.3522548050       -4.6138199678  W2        1573            0.0000000000
      4719      1573  TIP3      H2             18.6660694676       -4.4236748050       -4.0576499678  W2        1573            0.0000000000
      4720      1574  TIP3      OH2            36.9762894676       -4.5419848050        1.0876000322  W2        1574            0.0000000000
      4721      1574  TIP3      H1             36.9269694676       -5.4971748050        1.0503600322  W2        1574            0.0000000000
      4722      1574  TIP3      H2             36.1495194676       -4.2744548050        1.4889800322  W2        1574            0.0000000000
      4723      1575  TIP3      OH2            27.9546894676       -4.9680648050       -0.0362599678  W2        1575            0.0000000000
      4724      1575  TIP3      H1             28.0421494676       -4.1416048050        0.4386500322  W2        1575            0.0000000000
      4725      1575  TIP3      H2             27.0911994676       -5.2976848050        0.2126700322  W2        1575            0.0000000000
      4726      1576  TIP3      OH2            28.3692694676       -1.1956948050      -10.2301999678  W2        1576            0.0000000000
      4727      1576  TIP3      H1             28.2938694676       -1.3169748050      -11.1766799678  W2        1576            0.0000000000
      4728      1576  TIP3      H2             28.4021394676       -0.2464248050      -10.1117399678  W2        1576            0.0000000000
      4729      1577  TIP3      OH2            22.0226494676       -2.4069948050       -8.4492999678  W2        1577            0.0000000000
      4730      1577  TIP3      H1             22.1746894676       -2.7549548050       -7.5706499678  W2        1577            0.0000000000
      4731      1577  TIP3      H2             21.1716894676       -2.7632648050       -8.7045799678  W2        1577            0.0000000000
      4732      1578  TIP3      OH2            31.4708694676       -2.0416748050      -13.2279599678  W2        1578            0.0000000000
      4733      1578  TIP3      H1             31.8457094676       -2.7860648050      -13.6986999678  W2        1578            0.0000000000
      4734      1578  TIP3      H2             31.4752394676       -2.3116148050      -12.3096299678  W2        1578            0.0000000000
      4735      1579  TIP3      OH2            31.1396794676       -2.1159648050      -10.4787399678  W2        1579            0.0000000000
      4736      1579  TIP3      H1             30.2046594676       -2.0157748050      -10.3000399678  W2        1579            0.0000000000
      4737      1579  TIP3      H2             31.4198694676       -2.8253648050       -9.9004199678  W2        1579            0.0000000000
      4738      1580  TIP3      OH2            34.1282694676      -13.0487348050        1.5678200322  W2        1580            0.0000000000
      4739      1580  TIP3      H1             33.7209494676      -12.5681748050        0.8471500322  W2        1580            0.0000000000
      4740      1580  TIP3      H2             34.1688394676      -13.9541348050        1.2599000322  W2        1580            0.0000000000
      4741      1581  TIP3      OH2            21.2772194676       -6.6647948050       -0.4355099678  W2        1581            0.0000000000
      4742      1581  TIP3      H1             21.4933494676       -7.0262348050        0.4240700322  W2        1581            0.0000000000
      4743      1581  TIP3      H2             20.4216894676       -7.0394148050       -0.6451599678  W2        1581            0.0000000000
      4744      1582  TIP3      OH2            23.8960194676      -18.1947448050       -4.4400899678  W2        1582            0.0000000000
      4745      1582  TIP3      H1             23.0343894676      -18.2819248050       -4.8477999678  W2        1582            0.0000000000
      4746      1582  TIP3      H2             23.8735894676      -17.3387348050       -4.0123299678  W2        1582            0.0000000000
      4747      1583  TIP3      OH2            28.5587994676      -18.4727048050       -1.0653899678  W2        1583            0.0000000000
      4748      1583  TIP3      H1             28.9791094676      -18.8879948050       -0.3123299678  W2        1583            0.0000000000
      4749      1583  TIP3      H2             27.6257594676      -18.6513748050       -0.9481899678  W2        1583            0.0000000000
      4750      1584  TIP3      OH2            31.8852894676      -14.7171848050       -0.2119399678  W2        1584            0.0000000000
      4751      1584  TIP3      H1             31.3712394676      -14.8429648050        0.5856600322  W2        1584            0.0000000000
      4752      1584  TIP3      H2             31.7297594676      -13.8048748050       -0.4563199678  W2        1584            0.0000000000
      4753      1585  TIP3      OH2            32.6477794676       -9.8561848050      -14.4506399678  W2        1585            0.0000000000
      4754      1585  TIP3      H1             32.6898594676      -10.0787948050      -15.3806399678  W2        1585            0.0000000000
      4755      1585  TIP3      H2             33.4969894676       -9.4574748050      -14.2606499678  W2        1585            0.0000000000
      4756      1586  TIP3      OH2            28.2205294676      -15.9803648050      -13.7803099678  W2        1586            0.0000000000
      4757      1586  TIP3      H1             27.9670094676      -15.9612048050      -12.8574999678  W2        1586            0.0000000000
      4758      1586  TIP3      H2             27.9637394676      -16.8518248050      -14.0816899678  W2        1586            0.0000000000
      4759      1587  TIP3      OH2            23.9870294676      -13.2292948050       -3.3450699678  W2        1587            0.0000000000
      4760      1587  TIP3      H1             23.3452394676      -13.2695648050       -2.6360599678  W2        1587            0.0000000000
      4761      1587  TIP3      H2             24.0242294676      -12.3028248050       -3.5827699678  W2        1587            0.0000000000
      4762      1588  TIP3      OH2            23.9839394676      -13.0082848050       -8.4330699678  W2        1588            0.0000000000
      4763      1588  TIP3      H1             23.0912294676      -13.3486748050       -8.4916899678  W2        1588            0.0000000000
      4764      1588  TIP3      H2             24.4345994676      -13.3851948050       -9.1887499678  W2        1588            0.0000000000
      4765      1589  TIP3      OH2            29.5194894676      -12.5922548050       -9.6159899678  W2        1589            0.0000000000
      4766      1589  TIP3      H1             29.1105194676      -11.7773948050       -9.9075099678  W2        1589            0.0000000000
      4767      1589  TIP3      H2             30.2401094676      -12.7322448050      -10.2302799678  W2        1589            0.0000000000
      4768      1590  TIP3      OH2            28.6216494676      -12.4166148050        1.8720800322  W2        1590            0.0000000000
      4769      1590  TIP3      H1             28.0590294676      -13.1214548050        2.1928600322  W2        1590            0.0000000000
      4770      1590  TIP3      H2             29.4479894676      -12.5374248050        2.3398400322  W2        1590            0.0000000000
      4771      1591  TIP3      OH2            30.5242594676      -13.1462148050       -6.8020199678  W2        1591            0.0000000000
      4772      1591  TIP3      H1             30.3287094676      -12.5405348050       -7.5169599678  W2        1591            0.0000000000
      4773      1591  TIP3      H2             30.7055194676      -13.9796948050       -7.2363899678  W2        1591            0.0000000000
      4774      1592  TIP3      OH2            21.7370794676      -12.9089448050       -1.4778699678  W2        1592            0.0000000000
      4775      1592  TIP3      H1             21.6990194676      -12.5087848050       -0.6091599678  W2        1592            0.0000000000
      4776      1592  TIP3      H2             21.2461894676      -13.7257048050       -1.3875799678  W2        1592            0.0000000000
      4777      1593  TIP3      OH2            25.1028194676      -15.5347148050      -14.6792699678  W2        1593            0.0000000000
      4778      1593  TIP3      H1             24.6718894676      -15.9797048050      -13.9495299678  W2        1593            0.0000000000
      4779      1593  TIP3      H2             24.3846894676      -15.1630848050      -15.1915199678  W2        1593            0.0000000000
      4780      1594  TIP3      OH2            18.3451594676      -15.7927648050       -7.6273999678  W2        1594            0.0000000000
      4781      1594  TIP3      H1             18.9759294676      -15.8215548050       -6.9080099678  W2        1594            0.0000000000
      4782      1594  TIP3      H2             18.7945894676      -16.2178948050       -8.3578099678  W2        1594            0.0000000000
      4783      1595  TIP3      OH2            19.6193694676      -15.0465648050      -12.2033599678  W2        1595            0.0000000000
      4784      1595  TIP3      H1             20.0935394676      -14.4555748050      -12.7882699678  W2        1595            0.0000000000
      4785      1595  TIP3      H2             18.9020094676      -14.5162748050      -11.8563499678  W2        1595            0.0000000000
      4786      1596  TIP3      OH2            29.7881794676      -11.5080848050       -2.1307799678  W2        1596            0.0000000000
      4787      1596  TIP3      H1             30.1116594676      -12.1391148050       -2.7737299678  W2        1596            0.0000000000
      4788      1596  TIP3      H2             29.3481094676      -12.0428648050       -1.4700399678  W2        1596            0.0000000000
      4789      1597  TIP3      OH2            26.5654694676      -15.5805348050       -7.3466599678  W2        1597            0.0000000000
      4790      1597  TIP3      H1             25.6545794676      -15.5238548050       -7.0580599678  W2        1597            0.0000000000
      4791      1597  TIP3      H2             27.0707594676      -15.6409848050       -6.5359399678  W2        1597            0.0000000000
      4792      1598  TIP3      OH2            21.3938094676      -13.9519048050       -8.5198999678  W2        1598            0.0000000000
      4793      1598  TIP3      H1             20.5046094676      -13.8523548050       -8.8599399678  W2        1598            0.0000000000
      4794      1598  TIP3      H2             21.6902994676      -14.7936048050       -8.8661099678  W2        1598            0.0000000000
      4795      1599  TIP3      OH2            25.0469894676      -13.9516448050      -10.8634399678  W2        1599            0.0000000000
      4796      1599  TIP3      H1             25.9785394676      -13.8226448050      -10.6851299678  W2        1599            0.0000000000
      4797      1599  TIP3      H2             24.8320194676      -13.2822148050      -11.5129699678  W2        1599            0.0000000000
      4798      1600  TIP3      OH2            30.9706594676      -16.3459048050       -4.0824799678  W2        1600            0.0000000000
      4799      1600  TIP3      H1             30.2938194676      -16.2145948050       -3.4185099678  W2        1600            0.0000000000
      4800      1600  TIP3      H2             30.4851494676      -16.5009548050       -4.8927099678  W2        1600            0.0000000000
      4801      1601  TIP3      OH2            23.7210094676      -12.7574248050      -13.2968299678  W2        1601            0.0000000000
      4802      1601  TIP3      H1             23.1785194676      -13.1370448050      -13.9880699678  W2        1601            0.0000000000
      4803      1601  TIP3      H2             24.5544994676      -12.5629548050      -13.7254199678  W2        1601            0.0000000000
      4804      1602  TIP3      OH2            34.2581694676       -0.6743648050        2.1942800322  W2        1602            0.0000000000
      4805      1602  TIP3      H1             34.4580394676       -0.2501748050        1.3598100322  W2        1602            0.0000000000
      4806      1602  TIP3      H2             34.9135394676       -0.3305448050        2.8013200322  W2        1602            0.0000000000
      4807      1603  TIP3      OH2            21.8561494676       -8.2002348050        1.8023300322  W2        1603            0.0000000000
      4808      1603  TIP3      H1             22.5883894676       -7.9456448050        2.3637800322  W2        1603            0.0000000000
      4809      1603  TIP3      H2             21.0760194676       -7.9956948050        2.3178700322  W2        1603            0.0000000000
      4810      1604  TIP3      OH2            27.8854394676      -12.7932348050       -5.4596999678  W2        1604            0.0000000000
      4811      1604  TIP3      H1             28.4497794676      -13.3395748050       -6.0067399678  W2        1604            0.0000000000
      4812      1604  TIP3      H2             27.7377794676      -13.3150448050       -4.6709399678  W2        1604            0.0000000000
      4813      1605  TIP3      OH2            22.8874094676      -16.6566248050       -9.0412199678  W2        1605            0.0000000000
      4814      1605  TIP3      H1             22.5703594676      -17.5590948050       -9.0766799678  W2        1605            0.0000000000
      4815      1605  TIP3      H2             23.6688194676      -16.6548848050       -9.5940599678  W2        1605            0.0000000000
      4816      1606  TIP3      OH2            26.5120294676      -14.4046248050       -3.0456599678  W2        1606            0.0000000000
      4817      1606  TIP3      H1             25.6765594676      -13.9506748050       -2.9354199678  W2        1606            0.0000000000
      4818      1606  TIP3      H2             27.0360894676      -14.1287748050       -2.2936699678  W2        1606            0.0000000000
      4819      1607  TIP3      OH2            27.0562894676       -8.1918548050      -11.3610199678  W2        1607            0.0000000000
      4820      1607  TIP3      H1             26.3113894676       -8.6993248050      -11.6832299678  W2        1607            0.0000000000
      4821      1607  TIP3      H2             26.9220094676       -8.1430548050      -10.4145399678  W2        1607            0.0000000000
      4822      1608  TIP3      OH2            34.2061794676       -9.0590348050       -2.5742599678  W2        1608            0.0000000000
      4823      1608  TIP3      H1             34.8480594676       -8.6024048050       -3.1180399678  W2        1608            0.0000000000
      4824      1608  TIP3      H2             33.3758694676       -8.9457948050       -3.0368499678  W2        1608            0.0000000000
      4825      1609  TIP3      OH2            30.9539694676      -15.3778648050      -13.1617599678  W2        1609            0.0000000000
      4826      1609  TIP3      H1             30.0153894676      -15.2663048050      -13.3128799678  W2        1609            0.0000000000
      4827      1609  TIP3      H2             31.2511794676      -14.5211748050      -12.8551899678  W2        1609            0.0000000000
      4828      1610  TIP3      OH2            28.5754994676       -8.0075248050       -0.1241099678  W2        1610            0.0000000000
      4829      1610  TIP3      H1             28.2301094676       -8.3892848050        0.6828500322  W2        1610            0.0000000000
      4830      1610  TIP3      H2             28.3755094676       -7.0741648050       -0.0528199678  W2        1610            0.0000000000
      4831      1611  TIP3      OH2            31.6723194676      -13.5105948050      -11.5010199678  W2        1611            0.0000000000
      4832      1611  TIP3      H1             32.5642194676      -13.6480948050      -11.1818999678  W2        1611            0.0000000000
      4833      1611  TIP3      H2             31.7286794676      -12.7199848050      -12.0376699678  W2        1611            0.0000000000
      4834      1612  TIP3      OH2            22.1811194676       -8.8968548050       -5.5912299678  W2        1612            0.0000000000
      4835      1612  TIP3      H1             22.9258394676       -8.8992848050       -6.1925799678  W2        1612            0.0000000000
      4836      1612  TIP3      H2             22.2587794676       -9.7204748050       -5.1097199678  W2        1612            0.0000000000
      4837      1613  TIP3      OH2            29.1816994676       -6.7334248050      -12.3355599678  W2        1613            0.0000000000
      4838      1613  TIP3      H1             28.8865394676       -5.9066348050      -11.9540799678  W2        1613            0.0000000000
      4839      1613  TIP3      H2             28.4786994676       -7.3527348050      -12.1394199678  W2        1613            0.0000000000
      4840      1614  TIP3      OH2            19.1890894676      -10.4361648050       -0.2763799678  W2        1614            0.0000000000
      4841      1614  TIP3      H1             19.4119494676      -10.8542048050        0.5553700322  W2        1614            0.0000000000
      4842      1614  TIP3      H2             18.5870994676      -11.0486648050       -0.6990999678  W2        1614            0.0000000000
      4843      1615  TIP3      OH2            26.2055794676      -10.9191748050        1.9365900322  W2        1615            0.0000000000
      4844      1615  TIP3      H1             25.9096594676      -11.0848748050        1.0415000322  W2        1615            0.0000000000
      4845      1615  TIP3      H2             27.1370994676      -11.1391448050        1.9259800322  W2        1615            0.0000000000
      4846      1616  TIP3      OH2            30.8258594676       -5.5459748050       -0.1736099678  W2        1616            0.0000000000
      4847      1616  TIP3      H1             29.9252894676       -5.3627148050       -0.4412199678  W2        1616            0.0000000000
      4848      1616  TIP3      H2             30.8599694676       -5.2870448050        0.7472700322  W2        1616            0.0000000000
      4849      1617  TIP3      OH2            36.5571894676      -13.3011848050      -11.8063499678  W2        1617            0.0000000000
      4850      1617  TIP3      H1             36.0028194676      -13.6973848050      -12.4785999678  W2        1617            0.0000000000
      4851      1617  TIP3      H2             36.6575494676      -12.3906648050      -12.0840199678  W2        1617            0.0000000000
      4852      1618  TIP3      OH2            36.5203894676       -7.5010148050        1.0308000322  W2        1618            0.0000000000
      4853      1618  TIP3      H1             35.6692394676       -7.2626348050        0.6634400322  W2        1618            0.0000000000
      4854      1618  TIP3      H2             37.1107294676       -7.5176948050        0.2775100322  W2        1618            0.0000000000
      4855      1619  TIP3      OH2            34.8523594676       -4.5151448050      -11.3411399678  W2        1619            0.0000000000
      4856      1619  TIP3      H1             34.4794694676       -5.3407648050      -11.0320799678  W2        1619            0.0000000000
      4857      1619  TIP3      H2             35.1297094676       -4.6982048050      -12.2387999678  W2        1619            0.0000000000
      4858      1620  TIP3      OH2            32.0127494676       -9.7071948050       -4.3199499678  W2        1620            0.0000000000
      4859      1620  TIP3      H1             31.0844394676       -9.9390048050       -4.3470199678  W2        1620            0.0000000000
      4860      1620  TIP3      H2             32.4638594676      -10.4842148050       -4.6500699678  W2        1620            0.0000000000
      4861      1621  TIP3      OH2            24.5560594676       -5.3790348050       -8.1870799678  W2        1621            0.0000000000
      4862      1621  TIP3      H1             25.0832794676       -4.6055948050       -8.3871999678  W2        1621            0.0000000000
      4863      1621  TIP3      H2             23.6759094676       -5.1541148050       -8.4886799678  W2        1621            0.0000000000
      4864      1622  TIP3      OH2            20.3108294676      -10.5166248050      -13.5998399678  W2        1622            0.0000000000
      4865      1622  TIP3      H1             20.9268194676       -9.8899048050      -13.2203599678  W2        1622            0.0000000000
      4866      1622  TIP3      H2             19.4490894676      -10.2006448050      -13.3281899678  W2        1622            0.0000000000
      4867      1623  TIP3      OH2            25.9832894676       -7.7160448050       -8.6106499678  W2        1623            0.0000000000
      4868      1623  TIP3      H1             25.7422894676       -6.7906048050       -8.5691199678  W2        1623            0.0000000000
      4869      1623  TIP3      H2             25.2426494676       -8.1749148050       -8.2142599678  W2        1623            0.0000000000
      4870      1624  TIP3      OH2            26.4979494676       -3.5666848050       -2.2955399678  W2        1624            0.0000000000
      4871      1624  TIP3      H1             26.8604194676       -2.7121248050       -2.5290999678  W2        1624            0.0000000000
      4872      1624  TIP3      H2             27.0294694676       -3.8585248050       -1.5549099678  W2        1624            0.0000000000
      4873      1625  TIP3      OH2            24.6663694676       -2.6942848050       -9.0654299678  W2        1625            0.0000000000
      4874      1625  TIP3      H1             23.7164194676       -2.5885448050       -9.0140999678  W2        1625            0.0000000000
      4875      1625  TIP3      H2             25.0181794676       -1.8735448050       -8.7206799678  W2        1625            0.0000000000
      4876      1626  TIP3      OH2            30.0420294676       -7.4676148050       -2.5949799678  W2        1626            0.0000000000
      4877      1626  TIP3      H1             29.6161594676       -7.6954448050       -1.7685799678  W2        1626            0.0000000000
      4878      1626  TIP3      H2             30.6226094676       -8.2064348050       -2.7774499678  W2        1626            0.0000000000
      4879      1627  TIP3      OH2            32.2449194676       -6.5385648050      -13.5210799678  W2        1627            0.0000000000
      4880      1627  TIP3      H1             32.5982294676       -6.9185848050      -12.7167299678  W2        1627            0.0000000000
      4881      1627  TIP3      H2             31.2962694676       -6.6320848050      -13.4341499678  W2        1627            0.0000000000
      4882      1628  TIP3      OH2            32.7004494676       -2.9156648050       -0.1254999678  W2        1628            0.0000000000
      4883      1628  TIP3      H1             32.0987694676       -3.4713748050       -0.6208699678  W2        1628            0.0000000000
      4884      1628  TIP3      H2             32.9818194676       -2.2486848050       -0.7517599678  W2        1628            0.0000000000
      4885      1629  TIP3      OH2            36.7483594676       -2.0593148050      -13.3200599678  W2        1629            0.0000000000
      4886      1629  TIP3      H1             37.4921494676       -1.4732648050      -13.4598999678  W2        1629            0.0000000000
      4887      1629  TIP3      H2             36.0541694676       -1.4907348050      -12.9868199678  W2        1629            0.0000000000
      4888      1630  TIP3      OH2            20.8230394676      -15.6828948050       -0.7182399678  W2        1630            0.0000000000
      4889      1630  TIP3      H1             19.9302694676      -15.3443548050       -0.7858399678  W2        1630            0.0000000000
      4890      1630  TIP3      H2             20.7243194676      -16.5382848050       -0.3001599678  W2        1630            0.0000000000
      4891      1631  TIP3      OH2            33.1108494676       -7.8663648050      -11.2942899678  W2        1631            0.0000000000
      4892      1631  TIP3      H1             32.8336094676       -8.5944348050      -10.7381799678  W2        1631            0.0000000000
      4893      1631  TIP3      H2             34.0381494676       -7.7471648050      -11.0890299678  W2        1631            0.0000000000
      4894      1632  TIP3      OH2            20.4742394676       -3.8784548050       -2.2832999678  W2        1632            0.0000000000
      4895      1632  TIP3      H1             20.6912694676       -4.8102148050       -2.3143299678  W2        1632            0.0000000000
      4896      1632  TIP3      H2             20.7205894676       -3.6039548050       -1.4000199678  W2        1632            0.0000000000
      4897      1633  TIP3      OH2            26.3356994676       -5.4269548050      -15.0740799678  W2        1633            0.0000000000
      4898      1633  TIP3      H1             26.5746794676       -6.1751448050      -15.6211899678  W2        1633            0.0000000000
      4899      1633  TIP3      H2             26.0668294676       -5.8147848050      -14.2412999678  W2        1633            0.0000000000
      4900      1634  TIP3      OH2            25.2727594676       -5.8565748050      -12.6178199678  W2        1634            0.0000000000
      4901      1634  TIP3      H1             25.4195594676       -6.3765948050      -11.8277299678  W2        1634            0.0000000000
      4902      1634  TIP3      H2             25.2699294676       -4.9498148050      -12.3112299678  W2        1634            0.0000000000
      4903      1635  TIP3      OH2            21.7258694676       -8.6042448050      -12.1072799678  W2        1635            0.0000000000
      4904      1635  TIP3      H1             21.0397994676       -8.2519948050      -11.5403099678  W2        1635            0.0000000000
      4905      1635  TIP3      H2             22.2486594676       -7.8412848050      -12.3538499678  W2        1635            0.0000000000
      4906      1636  TIP3      OH2            29.5573794676      -15.9418648050       -1.8283799678  W2        1636            0.0000000000
      4907      1636  TIP3      H1             30.2561694676      -15.8679948050       -1.1784099678  W2        1636            0.0000000000
      4908      1636  TIP3      H2             29.1765194676      -16.8063648050       -1.6740899678  W2        1636            0.0000000000
      4909      1637  TIP3      OH2            30.3418694676      -16.2896948050      -10.7311499678  W2        1637            0.0000000000
      4910      1637  TIP3      H1             30.5616994676      -15.8181548050      -11.5346099678  W2        1637            0.0000000000
      4911      1637  TIP3      H2             30.9002694676      -15.8954348050      -10.0610899678  W2        1637            0.0000000000
      4912      1638  TIP3      OH2            28.0104794676       -4.1592148050      -11.8683999678  W2        1638            0.0000000000
      4913      1638  TIP3      H1             27.1940894676       -3.6622448050      -11.8159699678  W2        1638            0.0000000000
      4914      1638  TIP3      H2             28.5401094676       -3.6838648050      -12.5085199678  W2        1638            0.0000000000
      4915      1639  TIP3      OH2            27.5418594676      -14.5618148050       -9.8963099678  W2        1639            0.0000000000
      4916      1639  TIP3      H1             28.3541194676      -14.0574948050       -9.8501399678  W2        1639            0.0000000000
      4917      1639  TIP3      H2             27.2971594676      -14.7068448050       -8.9823499678  W2        1639            0.0000000000
      4918      1640  TIP3      OH2            28.0774994676      -13.5755448050       -0.7116499678  W2        1640            0.0000000000
      4919      1640  TIP3      H1             28.1965294676      -13.0020048050        0.0453900322  W2        1640            0.0000000000
      4920      1640  TIP3      H2             28.7329594676      -14.2636048050       -0.5968699678  W2        1640            0.0000000000
      4921      1641  TIP3      OH2            28.4255294676      -17.4805148050       -8.9581999678  W2        1641            0.0000000000
      4922      1641  TIP3      H1             28.0788794676      -16.8634548050       -8.3137699678  W2        1641            0.0000000000
      4923      1641  TIP3      H2             29.0842194676      -16.9799448050       -9.4396499678  W2        1641            0.0000000000
      4924      1642  TIP3      OH2            25.3487894676       -3.1154948050      -11.8867099678  W2        1642            0.0000000000
      4925      1642  TIP3      H1             25.5096594676       -2.3157448050      -12.3874499678  W2        1642            0.0000000000
      4926      1642  TIP3      H2             25.1515694676       -2.8088948050      -11.0016499678  W2        1642            0.0000000000
      4927      1643  TIP3      OH2            24.0832294676      -16.4175748050      -12.2709499678  W2        1643            0.0000000000
      4928      1643  TIP3      H1             23.9997094676      -15.5292648050      -11.9243099678  W2        1643            0.0000000000
      4929      1643  TIP3      H2             24.9732594676      -16.6829048050      -12.0392699678  W2        1643            0.0000000000
      4930      1644  TIP3      OH2            34.2820794676      -15.6685148050        0.1233200322  W2        1644            0.0000000000
      4931      1644  TIP3      H1             33.3656594676      -15.4063448050        0.0356900322  W2        1644            0.0000000000
      4932      1644  TIP3      H2             34.6175794676      -15.6716148050       -0.7731499678  W2        1644            0.0000000000
      4933      1645  TIP3      OH2            32.8841794676      -11.9184148050       -5.7809499678  W2        1645            0.0000000000
      4934      1645  TIP3      H1             32.0866194676      -12.3333948050       -6.1094499678  W2        1645            0.0000000000
      4935      1645  TIP3      H2             33.3292894676      -12.6090448050       -5.2898999678  W2        1645            0.0000000000
      4936      1646  TIP3      OH2            22.3417594676       -5.9903548050      -13.2104999678  W2        1646            0.0000000000
      4937      1646  TIP3      H1             22.9339094676       -5.2908748050      -12.9342599678  W2        1646            0.0000000000
      4938      1646  TIP3      H2             22.8010594676       -6.4234048050      -13.9300399678  W2        1646            0.0000000000
      4939      1647  TIP3      OH2            20.6576794676      -13.3260548050      -14.0945599678  W2        1647            0.0000000000
      4940      1647  TIP3      H1             20.6129394676      -12.3867448050      -13.9158599678  W2        1647            0.0000000000
      4941      1647  TIP3      H2             19.7699994676      -13.5615648050      -14.3643499678  W2        1647            0.0000000000
      4942      1648  TIP3      OH2            33.9706394676       -2.6621648050       -4.1585999678  W2        1648            0.0000000000
      4943      1648  TIP3      H1             33.8150694676       -1.9837248050       -4.8156699678  W2        1648            0.0000000000
      4944      1648  TIP3      H2             34.9032794676       -2.5902348050       -3.9555399678  W2        1648            0.0000000000
      4945      1649  TIP3      OH2            21.4658794676      -18.5443948050       -5.4214599678  W2        1649            0.0000000000
      4946      1649  TIP3      H1             21.2368594676      -18.4851448050       -6.3489599678  W2        1649            0.0000000000
      4947      1649  TIP3      H2             21.0232194676      -19.3358448050       -5.1150499678  W2        1649            0.0000000000
      4948      1650  TIP3      OH2            20.3962094676       -4.6036848050       -9.2608799678  W2        1650            0.0000000000
      4949      1650  TIP3      H1             19.5640694676       -4.1314148050       -9.2337399678  W2        1650            0.0000000000
      4950      1650  TIP3      H2             20.9420394676       -4.0939248050       -9.8595699678  W2        1650            0.0000000000
      4951      1651  TIP3      OH2            19.6845794676       -1.9913148050        2.0689200322  W2        1651            0.0000000000
      4952      1651  TIP3      H1             20.2247994676       -2.2079148050        2.8288400322  W2        1651            0.0000000000
      4953      1651  TIP3      H2             19.2033794676       -2.7967148050        1.8791700322  W2        1651            0.0000000000
      4954      1652  TIP3      OH2            24.2819194676       -3.0718748050        3.6893400322  W2        1652            0.0000000000
      4955      1652  TIP3      H1             25.0496394676       -3.5307948050        4.0302600322  W2        1652            0.0000000000
      4956      1652  TIP3      H2             24.2605394676       -3.2978948050        2.7594600322  W2        1652            0.0000000000
      4957      1653  TIP3      OH2            28.3738794676       -3.5638148050      -14.9354799678  W2        1653            0.0000000000
      4958      1653  TIP3      H1             27.7299794676       -4.1949548050      -14.6141099678  W2        1653            0.0000000000
      4959      1653  TIP3      H2             29.1357094676       -4.0950148050      -15.1671299678  W2        1653            0.0000000000
      4960      1654  TIP3      OH2            30.8587894676       -4.6917648050        2.4184900322  W2        1654            0.0000000000
      4961      1654  TIP3      H1             30.5077394676       -5.5484648050        2.6615300322  W2        1654            0.0000000000
      4962      1654  TIP3      H2             31.5851094676       -4.5490948050        3.0253900322  W2        1654            0.0000000000
      4963      1655  TIP3      OH2            32.9781694676       -3.7468248050      -14.7016799678  W2        1655            0.0000000000
      4964      1655  TIP3      H1             33.2612094676       -4.5413048050      -14.2489899678  W2        1655            0.0000000000
      4965      1655  TIP3      H2             33.7179594676       -3.5137248050      -15.2625699678  W2        1655            0.0000000000
      4966      1656  TIP3      OH2            19.5915294676       -8.1809048050        3.0233500322  W2        1656            0.0000000000
      4967      1656  TIP3      H1             19.7355794676       -9.0828348050        2.7370200322  W2        1656            0.0000000000
      4968      1656  TIP3      H2             18.8192694676       -7.8946948050        2.5355800322  W2        1656            0.0000000000
      4969      1657  TIP3      OH2            23.9328994676       -7.8373348050      -14.8441899678  W2        1657            0.0000000000
      4970      1657  TIP3      H1             23.9973094676       -8.6313748050      -14.3135499678  W2        1657            0.0000000000
      4971      1657  TIP3      H2             24.5858194676       -7.9560548050      -15.5339899678  W2        1657            0.0000000000
      4972      1658  TIP3      OH2            26.2471394676       -8.2110948050        2.4559900322  W2        1658            0.0000000000
      4973      1658  TIP3      H1             25.9185194676       -7.9402848050        1.5987300322  W2        1658            0.0000000000
      4974      1658  TIP3      H2             26.3989594676       -9.1521148050        2.3684900322  W2        1658            0.0000000000
      4975      1659  TIP3      OH2            29.2852394676       -6.7901648050      -15.1083899678  W2        1659            0.0000000000
      4976      1659  TIP3      H1             29.0166494676       -6.6099548050      -14.2074999678  W2        1659            0.0000000000
      4977      1659  TIP3      H2             29.0787994676       -7.7155448050      -15.2398099678  W2        1659            0.0000000000
      4978      1660  TIP3      OH2            31.9816594676       -8.2953648050       -0.1607799678  W2        1660            0.0000000000
      4979      1660  TIP3      H1             32.7271394676       -7.7069948050       -0.2803799678  W2        1660            0.0000000000
      4980      1660  TIP3      H2             31.2243394676       -7.7133948050       -0.0974699678  W2        1660            0.0000000000
      4981      1661  TIP3      OH2            20.4241794676      -10.9805748050        2.4432800322  W2        1661            0.0000000000
      4982      1661  TIP3      H1             20.8322994676      -11.8379148050        2.3223400322  W2        1661            0.0000000000
      4983      1661  TIP3      H2             20.1639394676      -10.9664448050        3.3643100322  W2        1661            0.0000000000
      4984      1662  TIP3      OH2            25.0822794676       -9.8647148050      -12.5383899678  W2        1662            0.0000000000
      4985      1662  TIP3      H1             24.6224794676      -10.3488848050      -11.8525399678  W2        1662            0.0000000000
      4986      1662  TIP3      H2             25.3371494676      -10.5331748050      -13.1743399678  W2        1662            0.0000000000
      4987      1663  TIP3      OH2            24.3712094676      -11.9720048050       -0.1824299678  W2        1663            0.0000000000
      4988      1663  TIP3      H1             23.7528194676      -11.2973448050        0.0980400322  W2        1663            0.0000000000
      4989      1663  TIP3      H2             24.7153294676      -11.6506148050       -1.0158099678  W2        1663            0.0000000000
      4990      1664  TIP3      OH2            26.1533194676      -11.6215348050      -14.2760699678  W2        1664            0.0000000000
      4991      1664  TIP3      H1             25.9728194676      -11.7764148050      -15.2032399678  W2        1664            0.0000000000
      4992      1664  TIP3      H2             27.1033694676      -11.5136648050      -14.2312799678  W2        1664            0.0000000000
      4993      1665  TIP3      OH2            29.3910294676       -9.5004748050        3.0950500322  W2        1665            0.0000000000
      4994      1665  TIP3      H1             30.3441494676       -9.4165648050        3.0676500322  W2        1665            0.0000000000
      4995      1665  TIP3      H2             29.2304894676      -10.2122948050        3.7145400322  W2        1665            0.0000000000
      4996      1666  TIP3      OH2            35.5431494676       -9.2671148050      -14.8302599678  W2        1666            0.0000000000
      4997      1666  TIP3      H1             35.2696294676       -9.6915648050      -15.6434299678  W2        1666            0.0000000000
      4998      1666  TIP3      H2             35.5825594676       -8.3356648050      -15.0472199678  W2        1666            0.0000000000
      4999      1667  TIP3      OH2            24.7105794676      -14.6169248050        0.8998800322  W2        1667            0.0000000000
      5000      1667  TIP3      H1             24.8606694676      -15.3457948050        0.2978500322  W2        1667            0.0000000000
      5001      1667  TIP3      H2             24.7128194676      -13.8397548050        0.3411000322  W2        1667            0.0000000000
      5002      1668  TIP3      OH2            25.1231494676      -16.2473448050       -1.6073799678  W2        1668            0.0000000000
      5003      1668  TIP3      H1             25.6588994676      -15.7956748050       -2.2594499678  W2        1668            0.0000000000
      5004      1668  TIP3      H2             24.2711094676      -16.3553648050       -2.0299699678  W2        1668            0.0000000000
      5005      1669  TIP3      OH2            26.7049894676      -10.8077248050       -1.3678599678  W2        1669            0.0000000000
      5006      1669  TIP3      H1             27.4554694676      -10.9639748050       -1.9410799678  W2        1669            0.0000000000
      5007      1669  TIP3      H2             26.3658194676       -9.9560648050       -1.6433099678  W2        1669            0.0000000000
      5008      1670  TIP3      OH2            31.1206094676      -12.9925448050        3.6606700322  W2        1670            0.0000000000
      5009      1670  TIP3      H1             31.3127394676      -13.9236048050        3.5491200322  W2        1670            0.0000000000
      5010      1670  TIP3      H2             31.9782394676      -12.5675948050        3.6502100322  W2        1670            0.0000000000
      5011      1671  TIP3      OH2            32.4373294676      -10.2040248050        1.7379400322  W2        1671            0.0000000000
      5012      1671  TIP3      H1             32.1558294676       -9.4945648050        1.1603200322  W2        1671            0.0000000000
      5013      1671  TIP3      H2             33.3797594676      -10.2767248050        1.5870600322  W2        1671            0.0000000000
      5014      1672  TIP3      OH2            23.1892094676      -13.4185748050        2.8114400322  W2        1672            0.0000000000
      5015      1672  TIP3      H1             22.4221094676      -13.9510948050        2.6012000322  W2        1672            0.0000000000
      5016      1672  TIP3      H2             23.8681094676      -13.7285348050        2.2120700322  W2        1672            0.0000000000
      5017      1673  TIP3      OH2            25.9286994676      -18.7907748050       -1.1760199678  W2        1673            0.0000000000
      5018      1673  TIP3      H1             25.8306594676      -17.8444548050       -1.2813999678  W2        1673            0.0000000000
      5019      1673  TIP3      H2             25.1863194676      -19.1633948050       -1.6516699678  W2        1673            0.0000000000
      5020      1674  TIP3      OH2            27.1927494676      -14.4692348050        2.3878200322  W2        1674            0.0000000000
      5021      1674  TIP3      H1             26.9572894676      -14.6885648050        3.2893100322  W2        1674            0.0000000000
      5022      1674  TIP3      H2             26.4094394676      -14.6761148050        1.8780700322  W2        1674            0.0000000000
      5023      1675  TIP3      OH2            29.9084094676      -15.3418848050        1.4631700322  W2        1675            0.0000000000
      5024      1675  TIP3      H1             28.9609494676      -15.3099148050        1.5955000322  W2        1675            0.0000000000
      5025      1675  TIP3      H2             30.2210794676      -15.9671748050        2.1169900322  W2        1675            0.0000000000
      5026      1676  TIP3      OH2            31.5425594676      -16.7077748050        3.4683600322  W2        1676            0.0000000000
      5027      1676  TIP3      H1             31.4457394676      -17.6600448050        3.4625500322  W2        1676            0.0000000000
      5028      1676  TIP3      H2             31.2208694676      -16.4390948050        4.3289100322  W2        1676            0.0000000000
      5029      1677  TIP3      OH2            21.3694894676      -15.4981948050        2.5159100322  W2        1677            0.0000000000
      5030      1677  TIP3      H1             21.5812294676      -16.2045848050        1.9056600322  W2        1677            0.0000000000
      5031      1677  TIP3      H2             21.2582394676      -15.9355948050        3.3600300322  W2        1677            0.0000000000
      5032      1678  TIP3      OH2            26.1505094676      -19.4970348050        1.4952600322  W2        1678            0.0000000000
      5033      1678  TIP3      H1             26.8623494676      -20.1368148050        1.4811700322  W2        1678            0.0000000000
      5034      1678  TIP3      H2             26.0495494676      -19.2302048050        0.5815700322  W2        1678            0.0000000000
      5035      1679  TIP3      OH2            26.5042594676      -17.8141948050        3.5488900322  W2        1679            0.0000000000
      5036      1679  TIP3      H1             26.3724794676      -18.2898148050        2.7287400322  W2        1679            0.0000000000
      5037      1679  TIP3      H2             25.9049994676      -17.0698348050        3.4936000322  W2        1679            0.0000000000
      5038      1680  TIP3      OH2            26.0504894676       -0.9311648050      -13.2747099678  W2        1680            0.0000000000
      5039      1680  TIP3      H1             26.9835594676       -0.7732948050      -13.1308699678  W2        1680            0.0000000000
      5040      1680  TIP3      H2             25.7863694676       -0.2558648050      -13.8995599678  W2        1680            0.0000000000
      5041      1681  TIP3      OH2            19.6189794676       -6.2947848050      -13.7918999678  W2        1681            0.0000000000
      5042      1681  TIP3      H1             20.5328994676       -6.2158948050      -13.5185099678  W2        1681            0.0000000000
      5043      1681  TIP3      H2             19.6262894676       -6.9818248050      -14.4583399678  W2        1681            0.0000000000
      5044      1682  TIP3      OH2            18.2680394676       -0.9019348050       -8.7145099678  W2        1682            0.0000000000
      5045      1682  TIP3      H1             17.6207494676       -1.3637648050       -9.2473899678  W2        1682            0.0000000000
      5046      1682  TIP3      H2             18.6224994676       -1.5736048050       -8.1318899678  W2        1682            0.0000000000
      5047      1683  TIP3      OH2            19.1379594676       -2.8212348050       -6.9098899678  W2        1683            0.0000000000
      5048      1683  TIP3      H1             18.8036394676       -3.7015048050       -6.7378699678  W2        1683            0.0000000000
      5049      1683  TIP3      H2             19.3601994676       -2.4757348050       -6.0453299678  W2        1683            0.0000000000
      5050      1684  TIP3      OH2            36.6864394676       -2.0115948050       -3.9294099678  W2        1684            0.0000000000
      5051      1684  TIP3      H1             36.6651094676       -1.8267548050       -2.9904699678  W2        1684            0.0000000000
      5052      1684  TIP3      H2             37.3770594676       -1.4431948050       -4.2702699678  W2        1684            0.0000000000
      5053      1685  TIP3      OH2            36.2497294676       -2.4444848050       -1.0074999678  W2        1685            0.0000000000
      5054      1685  TIP3      H1             35.7625994676       -3.1800748050       -1.3787599678  W2        1685            0.0000000000
      5055      1685  TIP3      H2             36.7989994676       -2.8380948050       -0.3295599678  W2        1685            0.0000000000
      5056      1686  TIP3      OH2            34.7004594676       -6.6546748050        3.6305300322  W2        1686            0.0000000000
      5057      1686  TIP3      H1             33.8345694676       -6.7597048050        4.0247600322  W2        1686            0.0000000000
      5058      1686  TIP3      H2             35.0770494676       -5.8963448050        4.0770000322  W2        1686            0.0000000000
      5059      1687  TIP3      OH2            36.0014294676       -8.3983048050      -10.8552199678  W2        1687            0.0000000000
      5060      1687  TIP3      H1             36.8515694676       -7.9772148050      -10.7280599678  W2        1687            0.0000000000
      5061      1687  TIP3      H2             36.0069394676       -9.1382948050      -10.2480799678  W2        1687            0.0000000000
      5062      1688  TIP3      OH2            36.3959894676      -10.3445648050       -9.0316499678  W2        1688            0.0000000000
      5063      1688  TIP3      H1             35.6694494676      -10.8243048050       -8.6338899678  W2        1688            0.0000000000
      5064      1688  TIP3      H2             36.9773194676      -10.1390948050       -8.2994899678  W2        1688            0.0000000000
      5065      1689  TIP3      OH2            36.1551094676       -7.5598148050       -4.0838899678  W2        1689            0.0000000000
      5066      1689  TIP3      H1             36.9885294676       -7.9378148050       -4.3645299678  W2        1689            0.0000000000
      5067      1689  TIP3      H2             36.2671394676       -6.6166948050       -4.2029799678  W2        1689            0.0000000000
      5068      1690  TIP3      OH2            34.6413394676       -4.6820648050       -1.7770499678  W2        1690            0.0000000000
      5069      1690  TIP3      H1             33.9938694676       -4.3569148050       -1.1515299678  W2        1690            0.0000000000
      5070      1690  TIP3      H2             34.1237394676       -5.1222948050       -2.4512199678  W2        1690            0.0000000000
      5071      1691  TIP3      OH2            36.6642994676      -10.4437148050      -12.6405199678  W2        1691            0.0000000000
      5072      1691  TIP3      H1             36.1424094676      -10.0873048050      -13.3594299678  W2        1691            0.0000000000
      5073      1691  TIP3      H2             36.6312194676       -9.7689348050      -11.9624299678  W2        1691            0.0000000000
      5074      1692  TIP3      OH2            35.0131994676      -13.2041548050      -14.0898099678  W2        1692            0.0000000000
      5075      1692  TIP3      H1             35.1096394676      -12.5374548050      -14.7698399678  W2        1692            0.0000000000
      5076      1692  TIP3      H2             34.8731594676      -14.0195248050      -14.5712599678  W2        1692            0.0000000000
      5077      1693  TIP3      OH2            34.1826694676      -11.8239148050       -8.4687799678  W2        1693            0.0000000000
      5078      1693  TIP3      H1             34.0325494676      -12.7690548050       -8.4889999678  W2        1693            0.0000000000
      5079      1693  TIP3      H2             33.8291194676      -11.5427748050       -7.6248699678  W2        1693            0.0000000000
      5080      1694  TIP3      OH2            19.2179094676       -9.7456948050       -4.4583999678  W2        1694            0.0000000000
      5081      1694  TIP3      H1             19.4021994676       -9.8275248050       -5.3941099678  W2        1694            0.0000000000
      5082      1694  TIP3      H2             20.0671994676       -9.8699948050       -4.0347599678  W2        1694            0.0000000000
      5083      1695  TIP3      OH2            35.0389594676       -9.8535848050        1.1700500322  W2        1695            0.0000000000
      5084      1695  TIP3      H1             35.6216894676      -10.5883548050        1.3617700322  W2        1695            0.0000000000
      5085      1695  TIP3      H2             35.6028894676       -9.0815548050        1.2166300322  W2        1695            0.0000000000
      5086      1696  TIP3      OH2            36.5356694676      -11.9510048050        1.8545900322  W2        1696            0.0000000000
      5087      1696  TIP3      H1             35.6723394676      -12.3297948050        1.6890600322  W2        1696            0.0000000000
      5088      1696  TIP3      H2             37.1400394676      -12.6895248050        1.7801700322  W2        1696            0.0000000000
      5089      1697  TIP3      OH2            34.2605794676      -15.7961748050      -14.9722599678  W2        1697            0.0000000000
      5090      1697  TIP3      H1             34.8711594676      -16.1674948050      -14.3354399678  W2        1697            0.0000000000
      5091      1697  TIP3      H2             33.4237294676      -16.2174848050      -14.7762599678  W2        1697            0.0000000000
      5092      1698  TIP3      OH2            33.8931494676      -14.2413348050      -10.0062699678  W2        1698            0.0000000000
      5093      1698  TIP3      H1             34.1728594676      -15.1482948050       -9.8820999678  W2        1698            0.0000000000
      5094      1698  TIP3      H2             34.6523194676      -13.8071848050      -10.3953499678  W2        1698            0.0000000000
      5095      1699  TIP3      OH2            34.5049794676      -13.6595948050       -4.5703799678  W2        1699            0.0000000000
      5096      1699  TIP3      H1             35.4377794676      -13.4476048050       -4.6047799678  W2        1699            0.0000000000
      5097      1699  TIP3      H2             34.2697294676      -13.5583848050       -3.6480799678  W2        1699            0.0000000000
      5098      1700  TIP3      OH2            34.5341694676      -12.9230648050       -1.7944399678  W2        1700            0.0000000000
      5099      1700  TIP3      H1             33.6912994676      -12.6550248050       -1.4284599678  W2        1700            0.0000000000
      5100      1700  TIP3      H2             34.9765994676      -12.1008748050       -2.0053299678  W2        1700            0.0000000000
      5101      1701  TIP3      OH2            18.8153894676      -14.4751948050        1.6824800322  W2        1701            0.0000000000
      5102      1701  TIP3      H1             19.7348794676      -14.5973648050        1.9187900322  W2        1701            0.0000000000
      5103      1701  TIP3      H2             18.3658394676      -15.2252248050        2.0718300322  W2        1701            0.0000000000
      5104      1702  TIP3      OH2            36.8173294676      -18.9430448050        3.5590600322  W2        1702            0.0000000000
      5105      1702  TIP3      H1             37.1670294676      -19.5966948050        2.9535300322  W2        1702            0.0000000000
      5106      1702  TIP3      H2             36.9642794676      -18.1056348050        3.1193200322  W2        1702            0.0000000000
      5107      1703  TIP3      OH2            34.5066294676      -16.9784048050       -9.9580699678  W2        1703            0.0000000000
      5108      1703  TIP3      H1             34.6891294676      -17.4272548050       -9.1325699678  W2        1703            0.0000000000
      5109      1703  TIP3      H2             33.9069194676      -17.5629648050      -10.4216099678  W2        1703            0.0000000000
      5110      1704  TIP3      OH2            20.0366394676      -16.1630348050       -5.4262299678  W2        1704            0.0000000000
      5111      1704  TIP3      H1             20.4817994676      -16.9547848050       -5.1242599678  W2        1704            0.0000000000
      5112      1704  TIP3      H2             20.5029394676      -15.4465148050       -4.9956699678  W2        1704            0.0000000000
      5113      1705  TIP3      OH2            18.3406694676      -13.1637348050       -4.3572099678  W2        1705            0.0000000000
      5114      1705  TIP3      H1             18.8326494676      -13.3846848050       -5.1480099678  W2        1705            0.0000000000
      5115      1705  TIP3      H2             18.7027594676      -12.3233948050       -4.0762599678  W2        1705            0.0000000000
      5116      1706  TIP3      OH2            36.3370494676      -16.8335848050        1.9081900322  W2        1706            0.0000000000
      5117      1706  TIP3      H1             35.4196194676      -16.5628748050        1.8725400322  W2        1706            0.0000000000
      5118      1706  TIP3      H2             36.4599894676      -17.3687448050        1.1241600322  W2        1706            0.0000000000
      5119      1707  TIP3      OH2            36.3732494676      -16.9105948050      -13.4300399678  W2        1707            0.0000000000
      5120      1707  TIP3      H1             36.7855094676      -17.6320248050      -13.9052399678  W2        1707            0.0000000000
      5121      1707  TIP3      H2             37.0548994676      -16.2411348050      -13.3716099678  W2        1707            0.0000000000
      5122      1708  TIP3      OH2            18.6543194676      -16.9058248050      -10.3029699678  W2        1708            0.0000000000
      5123      1708  TIP3      H1             17.7291594676      -16.6971648050      -10.4324199678  W2        1708            0.0000000000
      5124      1708  TIP3      H2             19.1083094676      -16.4217448050      -10.9927399678  W2        1708            0.0000000000
      5125      1709  TIP3      OH2            33.4250394676       -1.9216548050       -8.3572299678  W2        1709            0.0000000000
      5126      1709  TIP3      H1             34.0773294676       -2.2694448050       -8.9653199678  W2        1709            0.0000000000
      5127      1709  TIP3      H2             33.9354194676       -1.4333348050       -7.7112599678  W2        1709            0.0000000000
      5128      1710  TIP3      OH2            18.6178594676      -18.1679248050       -1.9587199678  W2        1710            0.0000000000
      5129      1710  TIP3      H1             17.9529094676      -18.4138948050       -1.3156299678  W2        1710            0.0000000000
      5130      1710  TIP3      H2             18.1749894676      -17.5458848050       -2.5359199678  W2        1710            0.0000000000
      5131      1711  TIP3      OH2            20.8097894676       -4.9925148050        2.1858600322  W2        1711            0.0000000000
      5132      1711  TIP3      H1             19.9890394676       -4.8178648050        1.7253300322  W2        1711            0.0000000000
      5133      1711  TIP3      H2             20.5575694676       -5.0660448050        3.1063000322  W2        1711            0.0000000000
      5134      1712  TIP3      OH2            23.7640794676       -4.0183948050       -1.5557399678  W2        1712            0.0000000000
      5135      1712  TIP3      H1             23.3391894676       -3.2085448050       -1.8382799678  W2        1712            0.0000000000
      5136      1712  TIP3      H2             24.6683594676       -3.9329848050       -1.8577599678  W2        1712            0.0000000000
      5137      1713  TIP3      OH2            28.0752194676       -2.6193948050        1.4036300322  W2        1713            0.0000000000
      5138      1713  TIP3      H1             28.2599694676       -2.9527848050        2.2816600322  W2        1713            0.0000000000
      5139      1713  TIP3      H2             28.9216694676       -2.3095348050        1.0815500322  W2        1713            0.0000000000
      5140      1714  TIP3      OH2            30.4202594676       -1.3335048050        0.6477700322  W2        1714            0.0000000000
      5141      1714  TIP3      H1             31.0971494676       -1.9662748050        0.4076900322  W2        1714            0.0000000000
      5142      1714  TIP3      H2             30.7421394676       -0.9324548050        1.4551000322  W2        1714            0.0000000000
      5143      1715  TIP3      OH2            35.3376394676      -18.7439548050       -0.2727299678  W2        1715            0.0000000000
      5144      1715  TIP3      H1             34.5249894676      -18.4189248050       -0.6602599678  W2        1715            0.0000000000
      5145      1715  TIP3      H2             35.5704894676      -19.5041048050       -0.8058199678  W2        1715            0.0000000000
      5146      1716  TIP3      OH2            21.1657494676       -0.7620048050       -1.5082099678  W2        1716            0.0000000000
      5147      1716  TIP3      H1             20.4453894676       -0.3219048050       -1.9594399678  W2        1716            0.0000000000
      5148      1716  TIP3      H2             20.8001494676       -1.0125348050       -0.6598099678  W2        1716            0.0000000000
      5149      1717  TIP3      OH2            23.6330094676       -1.1616148050       -2.4784899678  W2        1717            0.0000000000
      5150      1717  TIP3      H1             22.7682294676       -1.0897648050       -2.0744799678  W2        1717            0.0000000000
      5151      1717  TIP3      H2             23.5779094676       -0.6148848050       -3.2622399678  W2        1717            0.0000000000
      5152      1718  TIP3      OH2            28.3435694676       -1.2737248050       -3.3028899678  W2        1718            0.0000000000
      5153      1718  TIP3      H1             27.8869694676       -0.7447548050       -3.9570499678  W2        1718            0.0000000000
      5154      1718  TIP3      H2             28.5063694676       -0.6705848050       -2.5776599678  W2        1718            0.0000000000
      5155      1719  TIP3      OH2            30.6711994676       -2.3957648050       -2.3578599678  W2        1719            0.0000000000
      5156      1719  TIP3      H1             29.7665694676       -2.2307448050       -2.6236499678  W2        1719            0.0000000000
      5157      1719  TIP3      H2             31.1000594676       -1.5425448050       -2.4235199678  W2        1719            0.0000000000
      5158      1720  TIP3      OH2            33.2753894676       -0.8258548050       -2.0630799678  W2        1720            0.0000000000
      5159      1720  TIP3      H1             33.0935894676        0.0900351950       -2.2735899678  W2        1720            0.0000000000
      5160      1720  TIP3      H2             33.4521694676       -1.2361448050       -2.9096199678  W2        1720            0.0000000000
      5161      1721  TIP3      OH2            20.5805594676       -2.1387548050       -4.5980299678  W2        1721            0.0000000000
      5162      1721  TIP3      H1             20.5621594676       -2.5642448050       -3.7407999678  W2        1721            0.0000000000
      5163      1721  TIP3      H2             21.3853494676       -2.4572548050       -5.0068099678  W2        1721            0.0000000000
      5164      1722  TIP3      OH2            22.7218694676       -3.4288848050       -5.9430399678  W2        1722            0.0000000000
      5165      1722  TIP3      H1             22.5029394676       -4.3451448050       -5.7734399678  W2        1722            0.0000000000
      5166      1722  TIP3      H2             23.5460894676       -3.2888448050       -5.4768999678  W2        1722            0.0000000000
      5167      1723  TIP3      OH2            25.2591194676       -2.9589548050       -5.0942399678  W2        1723            0.0000000000
      5168      1723  TIP3      H1             25.4716894676       -3.8470548050       -5.3811499678  W2        1723            0.0000000000
      5169      1723  TIP3      H2             25.3236294676       -2.9931848050       -4.1398399678  W2        1723            0.0000000000
      5170      1724  TIP3      OH2            28.7674894676      -17.2948948050       -5.9499099678  W2        1724            0.0000000000
      5171      1724  TIP3      H1             28.0931694676      -17.9243348050       -5.6943299678  W2        1724            0.0000000000
      5172      1724  TIP3      H2             29.3314094676      -17.7790048050       -6.5531199678  W2        1724            0.0000000000
      5173      1725  TIP3      OH2            33.9102094676      -19.1874948050       -5.8371999678  W2        1725            0.0000000000
      5174      1725  TIP3      H1             34.5139694676      -18.6399548050       -6.3390999678  W2        1725            0.0000000000
      5175      1725  TIP3      H2             33.0404094676      -18.8684548050       -6.0777899678  W2        1725            0.0000000000
      5176      1726  TIP3      OH2            35.6372494676      -18.0486248050       -7.5041099678  W2        1726            0.0000000000
      5177      1726  TIP3      H1             36.2489994676      -18.5630548050       -8.0307499678  W2        1726            0.0000000000
      5178      1726  TIP3      H2             36.0195894676      -17.1714148050       -7.4806699678  W2        1726            0.0000000000
      5179      1727  TIP3      OH2            21.0942394676      -18.6608648050       -8.1279199678  W2        1727            0.0000000000
      5180      1727  TIP3      H1             20.3172194676      -18.8953748050       -8.6353299678  W2        1727            0.0000000000
      5181      1727  TIP3      H2             21.6245994676      -19.4576548050       -8.1191199678  W2        1727            0.0000000000
      5182      1728  TIP3      OH2            19.9305794676      -18.8630548050      -12.3243099678  W2        1728            0.0000000000
      5183      1728  TIP3      H1             20.3696494676      -18.2520048050      -12.9159599678  W2        1728            0.0000000000
      5184      1728  TIP3      H2             19.2968194676      -18.3246448050      -11.8503099678  W2        1728            0.0000000000
      5185      1729  TIP3      OH2            25.6734994676      -18.7341548050       -8.3146099678  W2        1729            0.0000000000
      5186      1729  TIP3      H1             26.5478394676      -18.3457248050       -8.3441799678  W2        1729            0.0000000000
      5187      1729  TIP3      H2             25.5375794676      -18.9493748050       -7.3918899678  W2        1729            0.0000000000
      5188      1730  TIP3      OH2            31.2303394676      -18.7041748050       -6.6654399678  W2        1730            0.0000000000
      5189      1730  TIP3      H1             31.3064994676      -18.6090148050       -7.6148399678  W2        1730            0.0000000000
      5190      1730  TIP3      H2             30.9552594676      -19.6118848050       -6.5365299678  W2        1730            0.0000000000
      5191      1731  TIP3      OH2            32.5835994676      -18.6783948050      -10.9729399678  W2        1731            0.0000000000
      5192      1731  TIP3      H1             31.8807094676      -18.0634748050      -11.1827999678  W2        1731            0.0000000000
      5193      1731  TIP3      H2             32.1387394676      -19.5157248050      -10.8418499678  W2        1731            0.0000000000
      5194      1732  TIP3      OH2            19.8315294676       -2.9148348050      -11.4267999678  W2        1732            0.0000000000
      5195      1732  TIP3      H1             19.1465194676       -2.9529448050      -12.0942899678  W2        1732            0.0000000000
      5196      1732  TIP3      H2             19.8352494676       -2.0020748050      -11.1385899678  W2        1732            0.0000000000
      5197      1733  TIP3      OH2            21.7914894676      -16.9469048050      -13.8818999678  W2        1733            0.0000000000
      5198      1733  TIP3      H1             22.2828294676      -17.5766648050      -14.4093499678  W2        1733            0.0000000000
      5199      1733  TIP3      H2             22.4151194676      -16.6509648050      -13.2187799678  W2        1733            0.0000000000
      5200      1734  TIP3      OH2            26.8174994676      -16.6537548050      -11.4248499678  W2        1734            0.0000000000
      5201      1734  TIP3      H1             26.9956294676      -17.3004348050      -10.7419899678  W2        1734            0.0000000000
      5202      1734  TIP3      H2             26.7641194676      -15.8199848050      -10.9577399678  W2        1734            0.0000000000
      5203      1735  TIP3      OH2            28.6958794676       -1.7053448050      -13.0291799678  W2        1735            0.0000000000
      5204      1735  TIP3      H1             29.5618994676       -1.3386048050      -13.2073599678  W2        1735            0.0000000000
      5205      1735  TIP3      H2             28.4491594676       -2.1445448050      -13.8430999678  W2        1735            0.0000000000
      5206      1736  TIP3      OH2            35.4048394676       -2.1423148050      -10.3500699678  W2        1736            0.0000000000
      5207      1736  TIP3      H1             35.2105494676       -2.8901048050      -10.9151099678  W2        1736            0.0000000000
      5208      1736  TIP3      H2             35.3658494676       -1.3843048050      -10.9332799678  W2        1736            0.0000000000
      5209      1737  TIP3      OH2            21.0520394676      -18.1466748050        1.3897000322  W2        1737            0.0000000000
      5210      1737  TIP3      H1             20.6858594676      -18.9124148050        1.8321700322  W2        1737            0.0000000000
      5211      1737  TIP3      H2             21.9648894676      -18.1176548050        1.6762100322  W2        1737            0.0000000000
      5212      1738  TIP3      OH2            23.0251194676      -18.7962348050        2.9254100322  W2        1738            0.0000000000
      5213      1738  TIP3      H1             23.9234794676      -19.0702148050        2.7407500322  W2        1738            0.0000000000
      5214      1738  TIP3      H2             22.6384294676      -19.5386348050        3.3896700322  W2        1738            0.0000000000
      5215      1739  TIP3      OH2            21.6496494676       -1.9947548050      -14.4015899678  W2        1739            0.0000000000
      5216      1739  TIP3      H1             21.3821094676       -1.7084648050      -13.5282799678  W2        1739            0.0000000000
      5217      1739  TIP3      H2             22.4209094676       -2.5408348050      -14.2493399678  W2        1739            0.0000000000
      5218      1740  TIP3      OH2            31.4463494676      -19.4637048050        3.1076900322  W2        1740            0.0000000000
      5219      1740  TIP3      H1             31.5230694676      -19.8896348050        3.9614600322  W2        1740            0.0000000000
      5220      1740  TIP3      H2             32.3400094676      -19.4502348050        2.7650400322  W2        1740            0.0000000000
      5221      1741  TIP3      OH2            34.6224594676       -3.3910748050        1.8001100322  W2        1741            0.0000000000
      5222      1741  TIP3      H1             33.8406494676       -3.5772748050        1.2801700322  W2        1741            0.0000000000
      5223      1741  TIP3      H2             34.5504494676       -2.4616448050        2.0173600322  W2        1741            0.0000000000
      5224      1742  TIP3      OH2            37.8634894676      -12.5252048050       -9.2295699678  W2        1742            0.0000000000
      5225      1742  TIP3      H1             37.4158294676      -11.6793348050       -9.2479199678  W2        1742            0.0000000000
      5226      1742  TIP3      H2             37.3026094676      -13.1047848050       -9.7450599678  W2        1742            0.0000000000
      5227      1743  TIP3      OH2            37.8841694676       -7.9883348050       -1.4787899678  W2        1743            0.0000000000
      5228      1743  TIP3      H1             37.3830094676       -8.0163948050       -2.2938199678  W2        1743            0.0000000000
      5229      1743  TIP3      H2             37.8895394676       -8.8940148050       -1.1690599678  W2        1743            0.0000000000
      5230      1744  TIP3      OH2            37.6344394676       -5.2079548050       -4.5947699678  W2        1744            0.0000000000
      5231      1744  TIP3      H1             38.5804994676       -5.3522548050       -4.6138199678  W2        1744            0.0000000000
      5232      1744  TIP3      H2             37.5220694676       -4.4236748050       -4.0576499678  W2        1744            0.0000000000
      5233      1745  TIP3      OH2            37.2011594676      -15.7927648050       -7.6273999678  W2        1745            0.0000000000
      5234      1745  TIP3      H1             37.8319294676      -15.8215548050       -6.9080099678  W2        1745            0.0000000000
      5235      1745  TIP3      H2             37.6505894676      -16.2178948050       -8.3578099678  W2        1745            0.0000000000
      5236      1746  TIP3      OH2            38.0450894676      -10.4361648050       -0.2763799678  W2        1746            0.0000000000
      5237      1746  TIP3      H1             38.2679494676      -10.8542048050        0.5553700322  W2        1746            0.0000000000
      5238      1746  TIP3      H2             37.4430994676      -11.0486648050       -0.6990999678  W2        1746            0.0000000000
      5239      1747  TIP3      OH2            38.4475294676       -8.1809048050        3.0233500322  W2        1747            0.0000000000
      5240      1747  TIP3      H1             38.5915794676       -9.0828348050        2.7370200322  W2        1747            0.0000000000
      5241      1747  TIP3      H2             37.6752694676       -7.8946948050        2.5355800322  W2        1747            0.0000000000
      5242      1748  TIP3      OH2            37.1240394676       -0.9019348050       -8.7145099678  W2        1748            0.0000000000
      5243      1748  TIP3      H1             36.4767494676       -1.3637648050       -9.2473899678  W2        1748            0.0000000000
      5244      1748  TIP3      H2             37.4784994676       -1.5736048050       -8.1318899678  W2        1748            0.0000000000
      5245      1749  TIP3      OH2            37.9939594676       -2.8212348050       -6.9098899678  W2        1749            0.0000000000
      5246      1749  TIP3      H1             37.6596394676       -3.7015048050       -6.7378699678  W2        1749            0.0000000000
      5247      1749  TIP3      H2             38.2161994676       -2.4757348050       -6.0453299678  W2        1749            0.0000000000
      5248      1750  TIP3      OH2            38.0739094676       -9.7456948050       -4.4583999678  W2        1750            0.0000000000
      5249      1750  TIP3      H1             38.2581994676       -9.8275248050       -5.3941099678  W2        1750            0.0000000000
      5250      1750  TIP3      H2             38.9231994676       -9.8699948050       -4.0347599678  W2        1750            0.0000000000
      5251      1751  TIP3      OH2            37.6713894676      -14.4751948050        1.6824800322  W2        1751            0.0000000000
      5252      1751  TIP3      H1             38.5908794676      -14.5973648050        1.9187900322  W2        1751            0.0000000000
      5253      1751  TIP3      H2             37.2218394676      -15.2252248050        2.0718300322  W2        1751            0.0000000000
      5254      1752  TIP3      OH2            37.1966694676      -13.1637348050       -4.3572099678  W2        1752            0.0000000000
      5255      1752  TIP3      H1             37.6886494676      -13.3846848050       -5.1480099678  W2        1752            0.0000000000
      5256      1752  TIP3      H2             37.5587594676      -12.3233948050       -4.0762599678  W2        1752            0.0000000000
      5257      1753  TIP3      OH2            37.5103194676      -16.9058248050      -10.3029699678  W2        1753            0.0000000000
      5258      1753  TIP3      H1             36.5851594676      -16.6971648050      -10.4324199678  W2        1753            0.0000000000
      5259      1753  TIP3      H2             37.9643094676      -16.4217448050      -10.9927399678  W2        1753            0.0000000000
      5260      1754  TIP3      OH2            37.4738594676      -18.1679248050       -1.9587199678  W2        1754            0.0000000000
      5261      1754  TIP3      H1             36.8089094676      -18.4138948050       -1.3156299678  W2        1754            0.0000000000
      5262      1754  TIP3      H2             37.0309894676      -17.5458848050       -2.5359199678  W2        1754            0.0000000000
      5263      1755  TIP3      OH2           -26.3955005324        9.3513651950       -8.1691699678  W2        1755            0.0000000000
      5264      1755  TIP3      H1            -26.3063905324       10.2951851950       -8.3014599678  W2        1755            0.0000000000
      5265      1755  TIP3      H2            -27.0337405324        9.0760051950       -8.8272299678  W2        1755            0.0000000000
      5266      1756  TIP3      OH2           -27.4623705324        8.6064351950       -4.7503499678  W2        1756            0.0000000000
      5267      1756  TIP3      H1            -27.5006205324        7.9600651950       -4.0453899678  W2        1756            0.0000000000
      5268      1756  TIP3      H2            -27.7847205324        8.1398751950       -5.5214799678  W2        1756            0.0000000000
      5269      1757  TIP3      OH2           -35.0938705324        8.2206451950       -3.1573599678  W2        1757            0.0000000000
      5270      1757  TIP3      H1            -35.0526605324        7.5949751950       -2.4341199678  W2        1757            0.0000000000
      5271      1757  TIP3      H2            -34.3911005324        8.8445051950       -2.9753199678  W2        1757            0.0000000000
      5272      1758  TIP3      OH2           -23.7563505324       11.5454751950       -6.4488399678  W2        1758            0.0000000000
      5273      1758  TIP3      H1            -24.1970805324       10.8250751950       -5.9982799678  W2        1758            0.0000000000
      5274      1758  TIP3      H2            -23.7693805324       12.2661951950       -5.8190699678  W2        1758            0.0000000000
      5275      1759  TIP3      OH2           -34.1705605324       12.6705351950       -4.6224499678  W2        1759            0.0000000000
      5276      1759  TIP3      H1            -34.5400405324       11.8685851950       -4.9920199678  W2        1759            0.0000000000
      5277      1759  TIP3      H2            -33.2294505324       12.5020251950       -4.5761099678  W2        1759            0.0000000000
      5278      1760  TIP3      OH2           -37.5605105324        6.3307951950       -9.2295699678  W2        1760            0.0000000000
      5279      1760  TIP3      H1            -38.0081705324        7.1766651950       -9.2479199678  W2        1760            0.0000000000
      5280      1760  TIP3      H2            -38.1213905324        5.7512151950       -9.7450599678  W2        1760            0.0000000000
      5281      1761  TIP3      OH2           -36.8499005324        8.4927551950       -7.1037699678  W2        1761            0.0000000000
      5282      1761  TIP3      H1            -36.6365505324        7.7229151950       -6.5764699678  W2        1761            0.0000000000
      5283      1761  TIP3      H2            -36.1121405324        8.5824251950       -7.7070099678  W2        1761            0.0000000000
      5284      1762  TIP3      OH2           -26.6448005324       16.6496451950       -6.2367999678  W2        1762            0.0000000000
      5285      1762  TIP3      H1            -26.0251605324       15.9731151950       -6.5098799678  W2        1762            0.0000000000
      5286      1762  TIP3      H2            -26.8530605324       16.4317251950       -5.3283099678  W2        1762            0.0000000000
      5287      1763  TIP3      OH2           -29.0729305324       11.0385751950       -4.3442499678  W2        1763            0.0000000000
      5288      1763  TIP3      H1            -28.7691405324       10.3527151950       -4.9388399678  W2        1763            0.0000000000
      5289      1763  TIP3      H2            -28.3515305324       11.1574451950       -3.7264499678  W2        1763            0.0000000000
      5290      1764  TIP3      OH2           -20.4099505324        2.6401051950       -3.4836299678  W2        1764            0.0000000000
      5291      1764  TIP3      H1            -20.3607305324        3.2502251950       -2.7477199678  W2        1764            0.0000000000
      5292      1764  TIP3      H2            -19.9844405324        3.1011951950       -4.2065199678  W2        1764            0.0000000000
      5293      1765  TIP3      OH2           -25.9322305324        5.4328151950       -4.0167699678  W2        1765            0.0000000000
      5294      1765  TIP3      H1            -25.7896405324        4.4865151950       -3.9966099678  W2        1765            0.0000000000
      5295      1765  TIP3      H2            -26.0383305324        5.6397951950       -4.9452799678  W2        1765            0.0000000000
      5296      1766  TIP3      OH2           -32.7774005324        3.5344551950       -6.7442899678  W2        1766            0.0000000000
      5297      1766  TIP3      H1            -32.7342905324        4.3943051950       -7.1626599678  W2        1766            0.0000000000
      5298      1766  TIP3      H2            -33.2349905324        2.9819251950       -7.3779699678  W2        1766            0.0000000000
      5299      1767  TIP3      OH2           -25.0551305324        3.6650151950       -8.3434599678  W2        1767            0.0000000000
      5300      1767  TIP3      H1            -24.4087005324        3.3363351950       -7.7186999678  W2        1767            0.0000000000
      5301      1767  TIP3      H2            -24.5451905324        4.1829151950       -8.9663199678  W2        1767            0.0000000000
      5302      1768  TIP3      OH2           -36.1572505324        5.9310351950       -5.9821499678  W2        1768            0.0000000000
      5303      1768  TIP3      H1            -35.5035905324        5.3812051950       -5.5501399678  W2        1768            0.0000000000
      5304      1768  TIP3      H2            -36.1333205324        5.6569351950       -6.8989499678  W2        1768            0.0000000000
      5305      1769  TIP3      OH2           -31.0008005324        7.4811651950       -6.7669999678  W2        1769            0.0000000000
      5306      1769  TIP3      H1            -30.3847005324        6.9547051950       -6.2575999678  W2        1769            0.0000000000
      5307      1769  TIP3      H2            -31.5869205324        6.8410351950       -7.1706399678  W2        1769            0.0000000000
      5308      1770  TIP3      OH2           -20.0184905324        4.1180251950       -1.2476499678  W2        1770            0.0000000000
      5309      1770  TIP3      H1            -20.7070305324        4.7760951950       -1.3429899678  W2        1770            0.0000000000
      5310      1770  TIP3      H2            -20.0030305324        3.9208151950       -0.3111099678  W2        1770            0.0000000000
      5311      1771  TIP3      OH2           -33.9672105324        2.4522951950       -2.6702099678  W2        1771            0.0000000000
      5312      1771  TIP3      H1            -34.1860405324        2.9823551950       -3.4366099678  W2        1771            0.0000000000
      5313      1771  TIP3      H2            -34.6351205324        2.6788451950       -2.0230699678  W2        1771            0.0000000000
      5314      1772  TIP3      OH2           -26.5982305324       11.9524051950       -9.1262999678  W2        1772            0.0000000000
      5315      1772  TIP3      H1            -26.8937205324       11.6296351950       -9.9776099678  W2        1772            0.0000000000
      5316      1772  TIP3      H2            -26.9224505324       12.8520751950       -9.0850399678  W2        1772            0.0000000000
      5317      1773  TIP3      OH2           -31.3980705324       10.1278651950       -2.3828399678  W2        1773            0.0000000000
      5318      1773  TIP3      H1            -32.1381605324       10.7260151950       -2.2793199678  W2        1773            0.0000000000
      5319      1773  TIP3      H2            -30.6841205324       10.6818251950       -2.6984799678  W2        1773            0.0000000000
      5320      1774  TIP3      OH2           -23.2912905324        2.9559451950       -6.3628699678  W2        1774            0.0000000000
      5321      1774  TIP3      H1            -23.5064905324        2.1902851950       -5.8302699678  W2        1774            0.0000000000
      5322      1774  TIP3      H2            -22.6355505324        3.4284051950       -5.8500199678  W2        1774            0.0000000000
      5323      1775  TIP3      OH2           -34.3734805324        4.3444751950       -4.7179899678  W2        1775            0.0000000000
      5324      1775  TIP3      H1            -33.7598505324        4.9772351950       -4.3447499678  W2        1775            0.0000000000
      5325      1775  TIP3      H2            -33.8614105324        3.8719751950       -5.3742999678  W2        1775            0.0000000000
      5326      1776  TIP3      OH2           -32.9906405324       12.0921651950       -1.5956899678  W2        1776            0.0000000000
      5327      1776  TIP3      H1            -32.9958805324       12.9715151950       -1.9737599678  W2        1776            0.0000000000
      5328      1776  TIP3      H2            -33.8442305324       12.0085751950       -1.1706999678  W2        1776            0.0000000000
      5329      1777  TIP3      OH2           -36.8695505324       11.7629551950      -10.8137599678  W2        1777            0.0000000000
      5330      1777  TIP3      H1            -37.1414605324       11.9920551950      -11.7024699678  W2        1777            0.0000000000
      5331      1777  TIP3      H2            -36.8239805324       12.6008351950      -10.3532299678  W2        1777            0.0000000000
      5332      1778  TIP3      OH2           -23.2445805324       13.3845451950       -4.1009099678  W2        1778            0.0000000000
      5333      1778  TIP3      H1            -24.1862105324       13.4429351950       -3.9392199678  W2        1778            0.0000000000
      5334      1778  TIP3      H2            -22.9679705324       14.2905951950       -4.2379399678  W2        1778            0.0000000000
      5335      1779  TIP3      OH2           -22.9438805324        1.6710751950       -2.6835199678  W2        1779            0.0000000000
      5336      1779  TIP3      H1            -23.6799605324        2.2817851950       -2.7213899678  W2        1779            0.0000000000
      5337      1779  TIP3      H2            -22.2604805324        2.0859751950       -3.2098799678  W2        1779            0.0000000000
      5338      1780  TIP3      OH2           -29.9407405324       -0.2421948050       -5.2177199678  W2        1780            0.0000000000
      5339      1780  TIP3      H1            -30.0583205324       -1.1905948050       -5.2718899678  W2        1780            0.0000000000
      5340      1780  TIP3      H2            -30.7957305324        0.0904151950       -4.9446099678  W2        1780            0.0000000000
      5341      1781  TIP3      OH2           -24.9924605324       15.1658951950       -7.4757499678  W2        1781            0.0000000000
      5342      1781  TIP3      H1            -24.5672305324       14.4586851950       -7.9607899678  W2        1781            0.0000000000
      5343      1781  TIP3      H2            -24.6754605324       15.9671651950       -7.8925299678  W2        1781            0.0000000000
      5344      1782  TIP3      OH2           -23.8328105324       13.0667451950       -8.9670899678  W2        1782            0.0000000000
      5345      1782  TIP3      H1            -24.0903305324       12.3767551950       -9.5784999678  W2        1782            0.0000000000
      5346      1782  TIP3      H2            -23.7617305324       12.6238651950       -8.1214999678  W2        1782            0.0000000000
      5347      1783  TIP3      OH2           -22.1467905324       11.6334151950       -0.4897399678  W2        1783            0.0000000000
      5348      1783  TIP3      H1            -22.0071605324       11.0416651950       -1.2290399678  W2        1783            0.0000000000
      5349      1783  TIP3      H2            -21.9795105324       12.5060051950       -0.8458599678  W2        1783            0.0000000000
      5350      1784  TIP3      OH2           -27.6742505324        8.5953651950      -10.7171399678  W2        1784            0.0000000000
      5351      1784  TIP3      H1            -28.3857005324        9.1303351950      -11.0690899678  W2        1784            0.0000000000
      5352      1784  TIP3      H2            -26.9832905324        8.6505751950      -11.3772499678  W2        1784            0.0000000000
      5353      1785  TIP3      OH2           -27.6203305324        7.0527951950      -13.6786399678  W2        1785            0.0000000000
      5354      1785  TIP3      H1            -26.9193405324        7.0754851950      -13.0272399678  W2        1785            0.0000000000
      5355      1785  TIP3      H2            -27.3180405324        6.4247651950      -14.3347099678  W2        1785            0.0000000000
      5356      1786  TIP3      OH2           -20.3048605324        7.9732151950       -2.4236999678  W2        1786            0.0000000000
      5357      1786  TIP3      H1            -20.9574505324        8.6677751950       -2.3346099678  W2        1786            0.0000000000
      5358      1786  TIP3      H2            -19.8398305324        8.1833051950       -3.2335399678  W2        1786            0.0000000000
      5359      1787  TIP3      OH2           -24.2684805324        8.8046951950       -9.7655499678  W2        1787            0.0000000000
      5360      1787  TIP3      H1            -25.0003805324        9.0330651950       -9.1924899678  W2        1787            0.0000000000
      5361      1787  TIP3      H2            -23.8212605324        8.0909651950       -9.3107999678  W2        1787            0.0000000000
      5362      1788  TIP3      OH2           -24.3711305324        6.9789551950       -0.6978499678  W2        1788            0.0000000000
      5363      1788  TIP3      H1            -24.2912205324        7.7423951950       -0.1259999678  W2        1788            0.0000000000
      5364      1788  TIP3      H2            -24.9723605324        7.2581951950       -1.3883399678  W2        1788            0.0000000000
      5365      1789  TIP3      OH2           -32.6231105324        9.4353151950       -7.8830499678  W2        1789            0.0000000000
      5366      1789  TIP3      H1            -32.9535905324        9.0646551950       -8.7013499678  W2        1789            0.0000000000
      5367      1789  TIP3      H2            -32.0347005324        8.7647151950       -7.5362199678  W2        1789            0.0000000000
      5368      1790  TIP3      OH2           -31.2563605324       12.8633751950       -5.2018299678  W2        1790            0.0000000000
      5369      1790  TIP3      H1            -31.3512305324       12.2846851950       -5.9583699678  W2        1790            0.0000000000
      5370      1790  TIP3      H2            -30.5270005324       12.4919451950       -4.7055499678  W2        1790            0.0000000000
      5371      1791  TIP3      OH2           -32.2565605324        8.2038751950       -4.2495499678  W2        1791            0.0000000000
      5372      1791  TIP3      H1            -31.6913105324        8.3252951950       -5.0124299678  W2        1791            0.0000000000
      5373      1791  TIP3      H2            -31.9376705324        8.8413751950       -3.6106999678  W2        1791            0.0000000000
      5374      1792  TIP3      OH2           -25.9473405324       13.7070651950       -3.5154999678  W2        1792            0.0000000000
      5375      1792  TIP3      H1            -26.1876805324       14.3693751950       -2.8675799678  W2        1792            0.0000000000
      5376      1792  TIP3      H2            -26.1455205324       12.8725851950       -3.0905399678  W2        1792            0.0000000000
      5377      1793  TIP3      OH2           -31.3764905324       12.6031451950        0.4676400322  W2        1793            0.0000000000
      5378      1793  TIP3      H1            -31.6877405324       13.3854651950        0.9229600322  W2        1793            0.0000000000
      5379      1793  TIP3      H2            -32.0264705324       12.4500551950       -0.2181599678  W2        1793            0.0000000000
      5380      1794  TIP3      OH2           -25.3975305324        7.9669851950      -12.0804299678  W2        1794            0.0000000000
      5381      1794  TIP3      H1            -24.8179805324        8.1170151950      -11.3335399678  W2        1794            0.0000000000
      5382      1794  TIP3      H2            -24.9835305324        8.4377251950      -12.8037899678  W2        1794            0.0000000000
      5383      1795  TIP3      OH2           -34.4565005324        8.8012551950       -0.3037899678  W2        1795            0.0000000000
      5384      1795  TIP3      H1            -34.3861805324        9.4519351950        0.3947100322  W2        1795            0.0000000000
      5385      1795  TIP3      H2            -35.3472805324        8.9040051950       -0.6386999678  W2        1795            0.0000000000
      5386      1796  TIP3      OH2           -27.6710405324       14.7038351950       -8.6451199678  W2        1796            0.0000000000
      5387      1796  TIP3      H1            -27.1972805324       14.9994651950       -7.8676999678  W2        1796            0.0000000000
      5388      1796  TIP3      H2            -28.2341105324       15.4419951950       -8.8781599678  W2        1796            0.0000000000
      5389      1797  TIP3      OH2           -33.1369005324       14.6746451950        1.2310200322  W2        1797            0.0000000000
      5390      1797  TIP3      H1            -33.1293705324       14.5386151950        0.2835700322  W2        1797            0.0000000000
      5391      1797  TIP3      H2            -34.0528605324       14.5574551950        1.4830200322  W2        1797            0.0000000000
      5392      1798  TIP3      OH2           -21.6986905324       -0.2829748050      -12.2674599678  W2        1798            0.0000000000
      5393      1798  TIP3      H1            -22.5986205324       -0.1440748050      -11.9723999678  W2        1798            0.0000000000
      5394      1798  TIP3      H2            -21.4468505324        0.5484851950      -12.6692899678  W2        1798            0.0000000000
      5395      1799  TIP3      OH2           -33.6328405324        8.5047451950      -10.2937699678  W2        1799            0.0000000000
      5396      1799  TIP3      H1            -33.9247105324        9.2729151950      -10.7846399678  W2        1799            0.0000000000
      5397      1799  TIP3      H2            -34.3073205324        7.8453651950      -10.4566299678  W2        1799            0.0000000000
      5398      1800  TIP3      OH2           -20.5095505324       14.0832651950      -13.8910699678  W2        1800            0.0000000000
      5399      1800  TIP3      H1            -20.4362005324       15.0222851950      -13.7205399678  W2        1800            0.0000000000
      5400      1800  TIP3      H2            -19.6040405324       13.7781251950      -13.9473399678  W2        1800            0.0000000000
      5401      1801  TIP3      OH2           -37.5398305324       10.8676651950       -1.4787899678  W2        1801            0.0000000000
      5402      1801  TIP3      H1            -38.0409905324       10.8396051950       -2.2938199678  W2        1801            0.0000000000
      5403      1801  TIP3      H2            -37.5344605324        9.9619851950       -1.1690599678  W2        1801            0.0000000000
      5404      1802  TIP3      OH2           -37.7895605324       13.6480451950       -4.5947699678  W2        1802            0.0000000000
      5405      1802  TIP3      H1            -36.8435005324       13.5037451950       -4.6138199678  W2        1802            0.0000000000
      5406      1802  TIP3      H2            -37.9019305324       14.4323251950       -4.0576499678  W2        1802            0.0000000000
      5407      1803  TIP3      OH2           -19.5917105324       14.3140151950        1.0876000322  W2        1803            0.0000000000
      5408      1803  TIP3      H1            -19.6410305324       13.3588251950        1.0503600322  W2        1803            0.0000000000
      5409      1803  TIP3      H2            -20.4184805324       14.5815451950        1.4889800322  W2        1803            0.0000000000
      5410      1804  TIP3      OH2           -28.6133105324       13.8879351950       -0.0362599678  W2        1804            0.0000000000
      5411      1804  TIP3      H1            -28.5258505324       14.7143951950        0.4386500322  W2        1804            0.0000000000
      5412      1804  TIP3      H2            -29.4768005324       13.5583151950        0.2126700322  W2        1804            0.0000000000
      5413      1805  TIP3      OH2           -28.1987305324       17.6603051950      -10.2301999678  W2        1805            0.0000000000
      5414      1805  TIP3      H1            -28.2741305324       17.5390251950      -11.1766799678  W2        1805            0.0000000000
      5415      1805  TIP3      H2            -28.1658605324       18.6095751950      -10.1117399678  W2        1805            0.0000000000
      5416      1806  TIP3      OH2           -34.5453505324       16.4490051950       -8.4492999678  W2        1806            0.0000000000
      5417      1806  TIP3      H1            -34.3933105324       16.1010451950       -7.5706499678  W2        1806            0.0000000000
      5418      1806  TIP3      H2            -35.3963105324       16.0927351950       -8.7045799678  W2        1806            0.0000000000
      5419      1807  TIP3      OH2           -25.0971305324       16.8143251950      -13.2279599678  W2        1807            0.0000000000
      5420      1807  TIP3      H1            -24.7222905324       16.0699351950      -13.6986999678  W2        1807            0.0000000000
      5421      1807  TIP3      H2            -25.0927605324       16.5443851950      -12.3096299678  W2        1807            0.0000000000
      5422      1808  TIP3      OH2           -25.4283205324       16.7400351950      -10.4787399678  W2        1808            0.0000000000
      5423      1808  TIP3      H1            -26.3633405324       16.8402251950      -10.3000399678  W2        1808            0.0000000000
      5424      1808  TIP3      H2            -25.1481305324       16.0306351950       -9.9004199678  W2        1808            0.0000000000
      5425      1809  TIP3      OH2           -22.4397305324        5.8072651950        1.5678200322  W2        1809            0.0000000000
      5426      1809  TIP3      H1            -22.8470505324        6.2878251950        0.8471500322  W2        1809            0.0000000000
      5427      1809  TIP3      H2            -22.3991605324        4.9018651950        1.2599000322  W2        1809            0.0000000000
      5428      1810  TIP3      OH2           -35.2907805324       12.1912051950       -0.4355099678  W2        1810            0.0000000000
      5429      1810  TIP3      H1            -35.0746505324       11.8297651950        0.4240700322  W2        1810            0.0000000000
      5430      1810  TIP3      H2            -36.1463105324       11.8165851950       -0.6451599678  W2        1810            0.0000000000
      5431      1811  TIP3      OH2           -32.6719805324        0.6612551950       -4.4400899678  W2        1811            0.0000000000
      5432      1811  TIP3      H1            -33.5336105324        0.5740751950       -4.8477999678  W2        1811            0.0000000000
      5433      1811  TIP3      H2            -32.6944105324        1.5172651950       -4.0123299678  W2        1811            0.0000000000
      5434      1812  TIP3      OH2           -28.0092005324        0.3832951950       -1.0653899678  W2        1812            0.0000000000
      5435      1812  TIP3      H1            -27.5888905324       -0.0319948050       -0.3123299678  W2        1812            0.0000000000
      5436      1812  TIP3      H2            -28.9422405324        0.2046251950       -0.9481899678  W2        1812            0.0000000000
      5437      1813  TIP3      OH2           -24.6827105324        4.1388151950       -0.2119399678  W2        1813            0.0000000000
      5438      1813  TIP3      H1            -25.1967605324        4.0130351950        0.5856600322  W2        1813            0.0000000000
      5439      1813  TIP3      H2            -24.8382405324        5.0511251950       -0.4563199678  W2        1813            0.0000000000
      5440      1814  TIP3      OH2           -23.9202205324        8.9998151950      -14.4506399678  W2        1814            0.0000000000
      5441      1814  TIP3      H1            -23.8781405324        8.7772051950      -15.3806399678  W2        1814            0.0000000000
      5442      1814  TIP3      H2            -23.0710105324        9.3985251950      -14.2606499678  W2        1814            0.0000000000
      5443      1815  TIP3      OH2           -28.3474705324        2.8756351950      -13.7803099678  W2        1815            0.0000000000
      5444      1815  TIP3      H1            -28.6009905324        2.8947951950      -12.8574999678  W2        1815            0.0000000000
      5445      1815  TIP3      H2            -28.6042605324        2.0041751950      -14.0816899678  W2        1815            0.0000000000
      5446      1816  TIP3      OH2           -32.5809705324        5.6267051950       -3.3450699678  W2        1816            0.0000000000
      5447      1816  TIP3      H1            -33.2227605324        5.5864351950       -2.6360599678  W2        1816            0.0000000000
      5448      1816  TIP3      H2            -32.5437705324        6.5531751950       -3.5827699678  W2        1816            0.0000000000
      5449      1817  TIP3      OH2           -32.5840605324        5.8477151950       -8.4330699678  W2        1817            0.0000000000
      5450      1817  TIP3      H1            -33.4767705324        5.5073251950       -8.4916899678  W2        1817            0.0000000000
      5451      1817  TIP3      H2            -32.1334005324        5.4708051950       -9.1887499678  W2        1817            0.0000000000
      5452      1818  TIP3      OH2           -27.0485105324        6.2637451950       -9.6159899678  W2        1818            0.0000000000
      5453      1818  TIP3      H1            -27.4574805324        7.0786051950       -9.9075099678  W2        1818            0.0000000000
      5454      1818  TIP3      H2            -26.3278905324        6.1237551950      -10.2302799678  W2        1818            0.0000000000
      5455      1819  TIP3      OH2           -27.9463505324        6.4393851950        1.8720800322  W2        1819            0.0000000000
      5456      1819  TIP3      H1            -28.5089705324        5.7345451950        2.1928600322  W2        1819            0.0000000000
      5457      1819  TIP3      H2            -27.1200105324        6.3185751950        2.3398400322  W2        1819            0.0000000000
      5458      1820  TIP3      OH2           -26.0437405324        5.7097851950       -6.8020199678  W2        1820            0.0000000000
      5459      1820  TIP3      H1            -26.2392905324        6.3154651950       -7.5169599678  W2        1820            0.0000000000
      5460      1820  TIP3      H2            -25.8624805324        4.8763051950       -7.2363899678  W2        1820            0.0000000000
      5461      1821  TIP3      OH2           -34.8309205324        5.9470551950       -1.4778699678  W2        1821            0.0000000000
      5462      1821  TIP3      H1            -34.8689805324        6.3472151950       -0.6091599678  W2        1821            0.0000000000
      5463      1821  TIP3      H2            -35.3218105324        5.1302951950       -1.3875799678  W2        1821            0.0000000000
      5464      1822  TIP3      OH2           -31.4651805324        3.3212851950      -14.6792699678  W2        1822            0.0000000000
      5465      1822  TIP3      H1            -31.8961105324        2.8762951950      -13.9495299678  W2        1822            0.0000000000
      5466      1822  TIP3      H2            -32.1833105324        3.6929151950      -15.1915199678  W2        1822            0.0000000000
      5467      1823  TIP3      OH2           -38.2228405324        3.0632351950       -7.6273999678  W2        1823            0.0000000000
      5468      1823  TIP3      H1            -37.5920705324        3.0344451950       -6.9080099678  W2        1823            0.0000000000
      5469      1823  TIP3      H2            -37.7734105324        2.6381051950       -8.3578099678  W2        1823            0.0000000000
      5470      1824  TIP3      OH2           -36.9486305324        3.8094351950      -12.2033599678  W2        1824            0.0000000000
      5471      1824  TIP3      H1            -36.4744605324        4.4004251950      -12.7882699678  W2        1824            0.0000000000
      5472      1824  TIP3      H2            -37.6659905324        4.3397251950      -11.8563499678  W2        1824            0.0000000000
      5473      1825  TIP3      OH2           -26.7798205324        7.3479151950       -2.1307799678  W2        1825            0.0000000000
      5474      1825  TIP3      H1            -26.4563405324        6.7168851950       -2.7737299678  W2        1825            0.0000000000
      5475      1825  TIP3      H2            -27.2198905324        6.8131351950       -1.4700399678  W2        1825            0.0000000000
      5476      1826  TIP3      OH2           -30.0025305324        3.2754651950       -7.3466599678  W2        1826            0.0000000000
      5477      1826  TIP3      H1            -30.9134205324        3.3321451950       -7.0580599678  W2        1826            0.0000000000
      5478      1826  TIP3      H2            -29.4972405324        3.2150151950       -6.5359399678  W2        1826            0.0000000000
      5479      1827  TIP3      OH2           -35.1741905324        4.9040951950       -8.5198999678  W2        1827            0.0000000000
      5480      1827  TIP3      H1            -36.0633905324        5.0036451950       -8.8599399678  W2        1827            0.0000000000
      5481      1827  TIP3      H2            -34.8777005324        4.0623951950       -8.8661099678  W2        1827            0.0000000000
      5482      1828  TIP3      OH2           -31.5210105324        4.9043551950      -10.8634399678  W2        1828            0.0000000000
      5483      1828  TIP3      H1            -30.5894605324        5.0333551950      -10.6851299678  W2        1828            0.0000000000
      5484      1828  TIP3      H2            -31.7359805324        5.5737851950      -11.5129699678  W2        1828            0.0000000000
      5485      1829  TIP3      OH2           -25.5973405324        2.5100951950       -4.0824799678  W2        1829            0.0000000000
      5486      1829  TIP3      H1            -26.2741805324        2.6414051950       -3.4185099678  W2        1829            0.0000000000
      5487      1829  TIP3      H2            -26.0828505324        2.3550451950       -4.8927099678  W2        1829            0.0000000000
      5488      1830  TIP3      OH2           -32.8469905324        6.0985751950      -13.2968299678  W2        1830            0.0000000000
      5489      1830  TIP3      H1            -33.3894805324        5.7189551950      -13.9880699678  W2        1830            0.0000000000
      5490      1830  TIP3      H2            -32.0135005324        6.2930451950      -13.7254199678  W2        1830            0.0000000000
      5491      1831  TIP3      OH2           -22.3098305324       18.1816351950        2.1942800322  W2        1831            0.0000000000
      5492      1831  TIP3      H1            -22.1099605324       18.6058251950        1.3598100322  W2        1831            0.0000000000
      5493      1831  TIP3      H2            -21.6544605324       18.5254551950        2.8013200322  W2        1831            0.0000000000
      5494      1832  TIP3      OH2           -34.7118505324       10.6557651950        1.8023300322  W2        1832            0.0000000000
      5495      1832  TIP3      H1            -33.9796105324       10.9103551950        2.3637800322  W2        1832            0.0000000000
      5496      1832  TIP3      H2            -35.4919805324       10.8603051950        2.3178700322  W2        1832            0.0000000000
      5497      1833  TIP3      OH2           -28.6825605324        6.0627651950       -5.4596999678  W2        1833            0.0000000000
      5498      1833  TIP3      H1            -28.1182205324        5.5164251950       -6.0067399678  W2        1833            0.0000000000
      5499      1833  TIP3      H2            -28.8302205324        5.5409551950       -4.6709399678  W2        1833            0.0000000000
      5500      1834  TIP3      OH2           -33.6805905324        2.1993751950       -9.0412199678  W2        1834            0.0000000000
      5501      1834  TIP3      H1            -33.9976405324        1.2969051950       -9.0766799678  W2        1834            0.0000000000
      5502      1834  TIP3      H2            -32.8991805324        2.2011151950       -9.5940599678  W2        1834            0.0000000000
      5503      1835  TIP3      OH2           -30.0559705324        4.4513751950       -3.0456599678  W2        1835            0.0000000000
      5504      1835  TIP3      H1            -30.8914405324        4.9053251950       -2.9354199678  W2        1835            0.0000000000
      5505      1835  TIP3      H2            -29.5319105324        4.7272251950       -2.2936699678  W2        1835            0.0000000000
      5506      1836  TIP3      OH2           -29.5117105324       10.6641451950      -11.3610199678  W2        1836            0.0000000000
      5507      1836  TIP3      H1            -30.2566105324       10.1566751950      -11.6832299678  W2        1836            0.0000000000
      5508      1836  TIP3      H2            -29.6459905324       10.7129451950      -10.4145399678  W2        1836            0.0000000000
      5509      1837  TIP3      OH2           -22.3618205324        9.7969651950       -2.5742599678  W2        1837            0.0000000000
      5510      1837  TIP3      H1            -21.7199405324       10.2535951950       -3.1180399678  W2        1837            0.0000000000
      5511      1837  TIP3      H2            -23.1921305324        9.9102051950       -3.0368499678  W2        1837            0.0000000000
      5512      1838  TIP3      OH2           -25.6140305324        3.4781351950      -13.1617599678  W2        1838            0.0000000000
      5513      1838  TIP3      H1            -26.5526105324        3.5896951950      -13.3128799678  W2        1838            0.0000000000
      5514      1838  TIP3      H2            -25.3168205324        4.3348251950      -12.8551899678  W2        1838            0.0000000000
      5515      1839  TIP3      OH2           -27.9925005324       10.8484751950       -0.1241099678  W2        1839            0.0000000000
      5516      1839  TIP3      H1            -28.3378905324       10.4667151950        0.6828500322  W2        1839            0.0000000000
      5517      1839  TIP3      H2            -28.1924905324       11.7818351950       -0.0528199678  W2        1839            0.0000000000
      5518      1840  TIP3      OH2           -24.8956805324        5.3454051950      -11.5010199678  W2        1840            0.0000000000
      5519      1840  TIP3      H1            -24.0037805324        5.2079051950      -11.1818999678  W2        1840            0.0000000000
      5520      1840  TIP3      H2            -24.8393205324        6.1360151950      -12.0376699678  W2        1840            0.0000000000
      5521      1841  TIP3      OH2           -34.3868805324        9.9591451950       -5.5912299678  W2        1841            0.0000000000
      5522      1841  TIP3      H1            -33.6421605324        9.9567151950       -6.1925799678  W2        1841            0.0000000000
      5523      1841  TIP3      H2            -34.3092205324        9.1355251950       -5.1097199678  W2        1841            0.0000000000
      5524      1842  TIP3      OH2           -27.3863005324       12.1225751950      -12.3355599678  W2        1842            0.0000000000
      5525      1842  TIP3      H1            -27.6814605324       12.9493651950      -11.9540799678  W2        1842            0.0000000000
      5526      1842  TIP3      H2            -28.0893005324       11.5032651950      -12.1394199678  W2        1842            0.0000000000
      5527      1843  TIP3      OH2           -37.3789105324        8.4198351950       -0.2763799678  W2        1843            0.0000000000
      5528      1843  TIP3      H1            -37.1560505324        8.0017951950        0.5553700322  W2        1843            0.0000000000
      5529      1843  TIP3      H2            -37.9809005324        7.8073351950       -0.6990999678  W2        1843            0.0000000000
      5530      1844  TIP3      OH2           -30.3624205324        7.9368251950        1.9365900322  W2        1844            0.0000000000
      5531      1844  TIP3      H1            -30.6583405324        7.7711251950        1.0415000322  W2        1844            0.0000000000
      5532      1844  TIP3      H2            -29.4309005324        7.7168551950        1.9259800322  W2        1844            0.0000000000
      5533      1845  TIP3      OH2           -25.7421405324       13.3100251950       -0.1736099678  W2        1845            0.0000000000
      5534      1845  TIP3      H1            -26.6427105324       13.4932851950       -0.4412199678  W2        1845            0.0000000000
      5535      1845  TIP3      H2            -25.7080305324       13.5689551950        0.7472700322  W2        1845            0.0000000000
      5536      1846  TIP3      OH2           -20.0108105324        5.5548151950      -11.8063499678  W2        1846            0.0000000000
      5537      1846  TIP3      H1            -20.5651805324        5.1586151950      -12.4785999678  W2        1846            0.0000000000
      5538      1846  TIP3      H2            -19.9104505324        6.4653351950      -12.0840199678  W2        1846            0.0000000000
      5539      1847  TIP3      OH2           -20.0476105324       11.3549851950        1.0308000322  W2        1847            0.0000000000
      5540      1847  TIP3      H1            -20.8987605324       11.5933651950        0.6634400322  W2        1847            0.0000000000
      5541      1847  TIP3      H2            -19.4572705324       11.3383051950        0.2775100322  W2        1847            0.0000000000
      5542      1848  TIP3      OH2           -21.7156405324       14.3408551950      -11.3411399678  W2        1848            0.0000000000
      5543      1848  TIP3      H1            -22.0885305324       13.5152351950      -11.0320799678  W2        1848            0.0000000000
      5544      1848  TIP3      H2            -21.4382905324       14.1577951950      -12.2387999678  W2        1848            0.0000000000
      5545      1849  TIP3      OH2           -24.5552505324        9.1488051950       -4.3199499678  W2        1849            0.0000000000
      5546      1849  TIP3      H1            -25.4835605324        8.9169951950       -4.3470199678  W2        1849            0.0000000000
      5547      1849  TIP3      H2            -24.1041405324        8.3717851950       -4.6500699678  W2        1849            0.0000000000
      5548      1850  TIP3      OH2           -32.0119405324       13.4769651950       -8.1870799678  W2        1850            0.0000000000
      5549      1850  TIP3      H1            -31.4847205324       14.2504051950       -8.3871999678  W2        1850            0.0000000000
      5550      1850  TIP3      H2            -32.8920905324       13.7018851950       -8.4886799678  W2        1850            0.0000000000
      5551      1851  TIP3      OH2           -36.2571705324        8.3393751950      -13.5998399678  W2        1851            0.0000000000
      5552      1851  TIP3      H1            -35.6411805324        8.9660951950      -13.2203599678  W2        1851            0.0000000000
      5553      1851  TIP3      H2            -37.1189105324        8.6553551950      -13.3281899678  W2        1851            0.0000000000
      5554      1852  TIP3      OH2           -30.5847105324       11.1399551950       -8.6106499678  W2        1852            0.0000000000
      5555      1852  TIP3      H1            -30.8257105324       12.0653951950       -8.5691199678  W2        1852            0.0000000000
      5556      1852  TIP3      H2            -31.3253505324       10.6810851950       -8.2142599678  W2        1852            0.0000000000
      5557      1853  TIP3      OH2           -30.0700505324       15.2893151950       -2.2955399678  W2        1853            0.0000000000
      5558      1853  TIP3      H1            -29.7075805324       16.1438751950       -2.5290999678  W2        1853            0.0000000000
      5559      1853  TIP3      H2            -29.5385305324       14.9974751950       -1.5549099678  W2        1853            0.0000000000
      5560      1854  TIP3      OH2           -31.9016305324       16.1617151950       -9.0654299678  W2        1854            0.0000000000
      5561      1854  TIP3      H1            -32.8515805324       16.2674551950       -9.0140999678  W2        1854            0.0000000000
      5562      1854  TIP3      H2            -31.5498205324       16.9824551950       -8.7206799678  W2        1854            0.0000000000
      5563      1855  TIP3      OH2           -26.5259705324       11.3883851950       -2.5949799678  W2        1855            0.0000000000
      5564      1855  TIP3      H1            -26.9518405324       11.1605551950       -1.7685799678  W2        1855            0.0000000000
      5565      1855  TIP3      H2            -25.9453905324       10.6495651950       -2.7774499678  W2        1855            0.0000000000
      5566      1856  TIP3      OH2           -24.3230805324       12.3174351950      -13.5210799678  W2        1856            0.0000000000
      5567      1856  TIP3      H1            -23.9697705324       11.9374151950      -12.7167299678  W2        1856            0.0000000000
      5568      1856  TIP3      H2            -25.2717305324       12.2239151950      -13.4341499678  W2        1856            0.0000000000
      5569      1857  TIP3      OH2           -23.8675505324       15.9403351950       -0.1254999678  W2        1857            0.0000000000
      5570      1857  TIP3      H1            -24.4692305324       15.3846251950       -0.6208699678  W2        1857            0.0000000000
      5571      1857  TIP3      H2            -23.5861805324       16.6073151950       -0.7517599678  W2        1857            0.0000000000
      5572      1858  TIP3      OH2           -19.8196405324       16.7966851950      -13.3200599678  W2        1858            0.0000000000
      5573      1858  TIP3      H1            -19.0758505324       17.3827351950      -13.4598999678  W2        1858            0.0000000000
      5574      1858  TIP3      H2            -20.5138305324       17.3652651950      -12.9868199678  W2        1858            0.0000000000
      5575      1859  TIP3      OH2           -35.7449605324        3.1731051950       -0.7182399678  W2        1859            0.0000000000
      5576      1859  TIP3      H1            -36.6377305324        3.5116451950       -0.7858399678  W2        1859            0.0000000000
      5577      1859  TIP3      H2            -35.8436805324        2.3177151950       -0.3001599678  W2        1859            0.0000000000
      5578      1860  TIP3      OH2           -23.4571505324       10.9896351950      -11.2942899678  W2        1860            0.0000000000
      5579      1860  TIP3      H1            -23.7343905324       10.2615651950      -10.7381799678  W2        1860            0.0000000000
      5580      1860  TIP3      H2            -22.5298505324       11.1088351950      -11.0890299678  W2        1860            0.0000000000
      5581      1861  TIP3      OH2           -36.0937605324       14.9775451950       -2.2832999678  W2        1861            0.0000000000
      5582      1861  TIP3      H1            -35.8767305324       14.0457851950       -2.3143299678  W2        1861            0.0000000000
      5583      1861  TIP3      H2            -35.8474105324       15.2520451950       -1.4000199678  W2        1861            0.0000000000
      5584      1862  TIP3      OH2           -30.2323005324       13.4290451950      -15.0740799678  W2        1862            0.0000000000
      5585      1862  TIP3      H1            -29.9933205324       12.6808551950      -15.6211899678  W2        1862            0.0000000000
      5586      1862  TIP3      H2            -30.5011705324       13.0412151950      -14.2412999678  W2        1862            0.0000000000
      5587      1863  TIP3      OH2           -31.2952405324       12.9994251950      -12.6178199678  W2        1863            0.0000000000
      5588      1863  TIP3      H1            -31.1484405324       12.4794051950      -11.8277299678  W2        1863            0.0000000000
      5589      1863  TIP3      H2            -31.2980705324       13.9061851950      -12.3112299678  W2        1863            0.0000000000
      5590      1864  TIP3      OH2           -34.8421305324       10.2517551950      -12.1072799678  W2        1864            0.0000000000
      5591      1864  TIP3      H1            -35.5282005324       10.6040051950      -11.5403099678  W2        1864            0.0000000000
      5592      1864  TIP3      H2            -34.3193405324       11.0147151950      -12.3538499678  W2        1864            0.0000000000
      5593      1865  TIP3      OH2           -27.0106205324        2.9141351950       -1.8283799678  W2        1865            0.0000000000
      5594      1865  TIP3      H1            -26.3118305324        2.9880051950       -1.1784099678  W2        1865            0.0000000000
      5595      1865  TIP3      H2            -27.3914805324        2.0496351950       -1.6740899678  W2        1865            0.0000000000
      5596      1866  TIP3      OH2           -26.2261305324        2.5663051950      -10.7311499678  W2        1866            0.0000000000
      5597      1866  TIP3      H1            -26.0063005324        3.0378451950      -11.5346099678  W2        1866            0.0000000000
      5598      1866  TIP3      H2            -25.6677305324        2.9605651950      -10.0610899678  W2        1866            0.0000000000
      5599      1867  TIP3      OH2           -28.5575205324       14.6967851950      -11.8683999678  W2        1867            0.0000000000
      5600      1867  TIP3      H1            -29.3739105324       15.1937551950      -11.8159699678  W2        1867            0.0000000000
      5601      1867  TIP3      H2            -28.0278905324       15.1721351950      -12.5085199678  W2        1867            0.0000000000
      5602      1868  TIP3      OH2           -29.0261405324        4.2941851950       -9.8963099678  W2        1868            0.0000000000
      5603      1868  TIP3      H1            -28.2138805324        4.7985051950       -9.8501399678  W2        1868            0.0000000000
      5604      1868  TIP3      H2            -29.2708405324        4.1491551950       -8.9823499678  W2        1868            0.0000000000
      5605      1869  TIP3      OH2           -28.4905005324        5.2804551950       -0.7116499678  W2        1869            0.0000000000
      5606      1869  TIP3      H1            -28.3714705324        5.8539951950        0.0453900322  W2        1869            0.0000000000
      5607      1869  TIP3      H2            -27.8350405324        4.5923951950       -0.5968699678  W2        1869            0.0000000000
      5608      1870  TIP3      OH2           -28.1424705324        1.3754851950       -8.9581999678  W2        1870            0.0000000000
      5609      1870  TIP3      H1            -28.4891205324        1.9925451950       -8.3137699678  W2        1870            0.0000000000
      5610      1870  TIP3      H2            -27.4837805324        1.8760551950       -9.4396499678  W2        1870            0.0000000000
      5611      1871  TIP3      OH2           -31.2192105324       15.7405051950      -11.8867099678  W2        1871            0.0000000000
      5612      1871  TIP3      H1            -31.0583405324       16.5402551950      -12.3874499678  W2        1871            0.0000000000
      5613      1871  TIP3      H2            -31.4164305324       16.0471051950      -11.0016499678  W2        1871            0.0000000000
      5614      1872  TIP3      OH2           -32.4847705324        2.4384251950      -12.2709499678  W2        1872            0.0000000000
      5615      1872  TIP3      H1            -32.5682905324        3.3267351950      -11.9243099678  W2        1872            0.0000000000
      5616      1872  TIP3      H2            -31.5947405324        2.1730951950      -12.0392699678  W2        1872            0.0000000000
      5617      1873  TIP3      OH2           -22.2859205324        3.1874851950        0.1233200322  W2        1873            0.0000000000
      5618      1873  TIP3      H1            -23.2023405324        3.4496551950        0.0356900322  W2        1873            0.0000000000
      5619      1873  TIP3      H2            -21.9504205324        3.1843851950       -0.7731499678  W2        1873            0.0000000000
      5620      1874  TIP3      OH2           -23.6838205324        6.9375851950       -5.7809499678  W2        1874            0.0000000000
      5621      1874  TIP3      H1            -24.4813805324        6.5226051950       -6.1094499678  W2        1874            0.0000000000
      5622      1874  TIP3      H2            -23.2387105324        6.2469551950       -5.2898999678  W2        1874            0.0000000000
      5623      1875  TIP3      OH2           -34.2262405324       12.8656451950      -13.2104999678  W2        1875            0.0000000000
      5624      1875  TIP3      H1            -33.6340905324       13.5651251950      -12.9342599678  W2        1875            0.0000000000
      5625      1875  TIP3      H2            -33.7669405324       12.4325951950      -13.9300399678  W2        1875            0.0000000000
      5626      1876  TIP3      OH2           -35.9103205324        5.5299451950      -14.0945599678  W2        1876            0.0000000000
      5627      1876  TIP3      H1            -35.9550605324        6.4692551950      -13.9158599678  W2        1876            0.0000000000
      5628      1876  TIP3      H2            -36.7980005324        5.2944351950      -14.3643499678  W2        1876            0.0000000000
      5629      1877  TIP3      OH2           -22.5973605324       16.1938351950       -4.1585999678  W2        1877            0.0000000000
      5630      1877  TIP3      H1            -22.7529305324       16.8722751950       -4.8156699678  W2        1877            0.0000000000
      5631      1877  TIP3      H2            -21.6647205324       16.2657651950       -3.9555399678  W2        1877            0.0000000000
      5632      1878  TIP3      OH2           -35.1021205324        0.3116051950       -5.4214599678  W2        1878            0.0000000000
      5633      1878  TIP3      H1            -35.3311405324        0.3708551950       -6.3489599678  W2        1878            0.0000000000
      5634      1878  TIP3      H2            -35.5447805324       -0.4798448050       -5.1150499678  W2        1878            0.0000000000
      5635      1879  TIP3      OH2           -36.1717905324       14.2523151950       -9.2608799678  W2        1879            0.0000000000
      5636      1879  TIP3      H1            -37.0039305324       14.7245851950       -9.2337399678  W2        1879            0.0000000000
      5637      1879  TIP3      H2            -35.6259605324       14.7620751950       -9.8595699678  W2        1879            0.0000000000
      5638      1880  TIP3      OH2           -36.8834205324       16.8646851950        2.0689200322  W2        1880            0.0000000000
      5639      1880  TIP3      H1            -36.3432005324       16.6480851950        2.8288400322  W2        1880            0.0000000000
      5640      1880  TIP3      H2            -37.3646205324       16.0592851950        1.8791700322  W2        1880            0.0000000000
      5641      1881  TIP3      OH2           -32.2860805324       15.7841251950        3.6893400322  W2        1881            0.0000000000
      5642      1881  TIP3      H1            -31.5183605324       15.3252051950        4.0302600322  W2        1881            0.0000000000
      5643      1881  TIP3      H2            -32.3074605324       15.5581051950        2.7594600322  W2        1881            0.0000000000
      5644      1882  TIP3      OH2           -28.1941205324       15.2921851950      -14.9354799678  W2        1882            0.0000000000
      5645      1882  TIP3      H1            -28.8380205324       14.6610451950      -14.6141099678  W2        1882            0.0000000000
      5646      1882  TIP3      H2            -27.4322905324       14.7609851950      -15.1671299678  W2        1882            0.0000000000
      5647      1883  TIP3      OH2           -25.7092105324       14.1642351950        2.4184900322  W2        1883            0.0000000000
      5648      1883  TIP3      H1            -26.0602605324       13.3075351950        2.6615300322  W2        1883            0.0000000000
      5649      1883  TIP3      H2            -24.9828905324       14.3069051950        3.0253900322  W2        1883            0.0000000000
      5650      1884  TIP3      OH2           -23.5898305324       15.1091751950      -14.7016799678  W2        1884            0.0000000000
      5651      1884  TIP3      H1            -23.3067905324       14.3146951950      -14.2489899678  W2        1884            0.0000000000
      5652      1884  TIP3      H2            -22.8500405324       15.3422751950      -15.2625699678  W2        1884            0.0000000000
      5653      1885  TIP3      OH2           -36.9764705324       10.6750951950        3.0233500322  W2        1885            0.0000000000
      5654      1885  TIP3      H1            -36.8324205324        9.7731651950        2.7370200322  W2        1885            0.0000000000
      5655      1885  TIP3      H2            -37.7487305324       10.9613051950        2.5355800322  W2        1885            0.0000000000
      5656      1886  TIP3      OH2           -32.6351005324       11.0186651950      -14.8441899678  W2        1886            0.0000000000
      5657      1886  TIP3      H1            -32.5706905324       10.2246251950      -14.3135499678  W2        1886            0.0000000000
      5658      1886  TIP3      H2            -31.9821805324       10.8999451950      -15.5339899678  W2        1886            0.0000000000
      5659      1887  TIP3      OH2           -30.3208605324       10.6449051950        2.4559900322  W2        1887            0.0000000000
      5660      1887  TIP3      H1            -30.6494805324       10.9157151950        1.5987300322  W2        1887            0.0000000000
      5661      1887  TIP3      H2            -30.1690405324        9.7038851950        2.3684900322  W2        1887            0.0000000000
      5662      1888  TIP3      OH2           -27.2827605324       12.0658351950      -15.1083899678  W2        1888            0.0000000000
      5663      1888  TIP3      H1            -27.5513505324       12.2460451950      -14.2074999678  W2        1888            0.0000000000
      5664      1888  TIP3      H2            -27.4892005324       11.1404551950      -15.2398099678  W2        1888            0.0000000000
      5665      1889  TIP3      OH2           -24.5863405324       10.5606351950       -0.1607799678  W2        1889            0.0000000000
      5666      1889  TIP3      H1            -23.8408605324       11.1490051950       -0.2803799678  W2        1889            0.0000000000
      5667      1889  TIP3      H2            -25.3436605324       11.1426051950       -0.0974699678  W2        1889            0.0000000000
      5668      1890  TIP3      OH2           -36.1438205324        7.8754251950        2.4432800322  W2        1890            0.0000000000
      5669      1890  TIP3      H1            -35.7357005324        7.0180851950        2.3223400322  W2        1890            0.0000000000
      5670      1890  TIP3      H2            -36.4040605324        7.8895551950        3.3643100322  W2        1890            0.0000000000
      5671      1891  TIP3      OH2           -31.4857205324        8.9912851950      -12.5383899678  W2        1891            0.0000000000
      5672      1891  TIP3      H1            -31.9455205324        8.5071151950      -11.8525399678  W2        1891            0.0000000000
      5673      1891  TIP3      H2            -31.2308505324        8.3228251950      -13.1743399678  W2        1891            0.0000000000
      5674      1892  TIP3      OH2           -32.1967905324        6.8839951950       -0.1824299678  W2        1892            0.0000000000
      5675      1892  TIP3      H1            -32.8151805324        7.5586551950        0.0980400322  W2        1892            0.0000000000
      5676      1892  TIP3      H2            -31.8526705324        7.2053851950       -1.0158099678  W2        1892            0.0000000000
      5677      1893  TIP3      OH2           -30.4146805324        7.2344651950      -14.2760699678  W2        1893            0.0000000000
      5678      1893  TIP3      H1            -30.5951805324        7.0795851950      -15.2032399678  W2        1893            0.0000000000
      5679      1893  TIP3      H2            -29.4646305324        7.3423351950      -14.2312799678  W2        1893            0.0000000000
      5680      1894  TIP3      OH2           -27.1769705324        9.3555251950        3.0950500322  W2        1894            0.0000000000
      5681      1894  TIP3      H1            -26.2238505324        9.4394351950        3.0676500322  W2        1894            0.0000000000
      5682      1894  TIP3      H2            -27.3375105324        8.6437051950        3.7145400322  W2        1894            0.0000000000
      5683      1895  TIP3      OH2           -21.0248505324        9.5888851950      -14.8302599678  W2        1895            0.0000000000
      5684      1895  TIP3      H1            -21.2983705324        9.1644351950      -15.6434299678  W2        1895            0.0000000000
      5685      1895  TIP3      H2            -20.9854405324       10.5203351950      -15.0472199678  W2        1895            0.0000000000
      5686      1896  TIP3      OH2           -31.8574205324        4.2390751950        0.8998800322  W2        1896            0.0000000000
      5687      1896  TIP3      H1            -31.7073305324        3.5102051950        0.2978500322  W2        1896            0.0000000000
      5688      1896  TIP3      H2            -31.8551805324        5.0162451950        0.3411000322  W2        1896            0.0000000000
      5689      1897  TIP3      OH2           -31.4448505324        2.6086551950       -1.6073799678  W2        1897            0.0000000000
      5690      1897  TIP3      H1            -30.9091005324        3.0603251950       -2.2594499678  W2        1897            0.0000000000
      5691      1897  TIP3      H2            -32.2968905324        2.5006351950       -2.0299699678  W2        1897            0.0000000000
      5692      1898  TIP3      OH2           -29.8630105324        8.0482751950       -1.3678599678  W2        1898            0.0000000000
      5693      1898  TIP3      H1            -29.1125305324        7.8920251950       -1.9410799678  W2        1898            0.0000000000
      5694      1898  TIP3      H2            -30.2021805324        8.8999351950       -1.6433099678  W2        1898            0.0000000000
      5695      1899  TIP3      OH2           -25.4473905324        5.8634551950        3.6606700322  W2        1899            0.0000000000
      5696      1899  TIP3      H1            -25.2552605324        4.9323951950        3.5491200322  W2        1899            0.0000000000
      5697      1899  TIP3      H2            -24.5897605324        6.2884051950        3.6502100322  W2        1899            0.0000000000
      5698      1900  TIP3      OH2           -24.1306705324        8.6519751950        1.7379400322  W2        1900            0.0000000000
      5699      1900  TIP3      H1            -24.4121705324        9.3614351950        1.1603200322  W2        1900            0.0000000000
      5700      1900  TIP3      H2            -23.1882405324        8.5792751950        1.5870600322  W2        1900            0.0000000000
      5701      1901  TIP3      OH2           -33.3787905324        5.4374251950        2.8114400322  W2        1901            0.0000000000
      5702      1901  TIP3      H1            -34.1458905324        4.9049051950        2.6012000322  W2        1901            0.0000000000
      5703      1901  TIP3      H2            -32.6998905324        5.1274651950        2.2120700322  W2        1901            0.0000000000
      5704      1902  TIP3      OH2           -30.6393005324        0.0652251950       -1.1760199678  W2        1902            0.0000000000
      5705      1902  TIP3      H1            -30.7373405324        1.0115451950       -1.2813999678  W2        1902            0.0000000000
      5706      1902  TIP3      H2            -31.3816805324       -0.3073948050       -1.6516699678  W2        1902            0.0000000000
      5707      1903  TIP3      OH2           -29.3752505324        4.3867651950        2.3878200322  W2        1903            0.0000000000
      5708      1903  TIP3      H1            -29.6107105324        4.1674351950        3.2893100322  W2        1903            0.0000000000
      5709      1903  TIP3      H2            -30.1585605324        4.1798851950        1.8780700322  W2        1903            0.0000000000
      5710      1904  TIP3      OH2           -26.6595905324        3.5141151950        1.4631700322  W2        1904            0.0000000000
      5711      1904  TIP3      H1            -27.6070505324        3.5460851950        1.5955000322  W2        1904            0.0000000000
      5712      1904  TIP3      H2            -26.3469205324        2.8888251950        2.1169900322  W2        1904            0.0000000000
      5713      1905  TIP3      OH2           -25.0254405324        2.1482251950        3.4683600322  W2        1905            0.0000000000
      5714      1905  TIP3      H1            -25.1222605324        1.1959551950        3.4625500322  W2        1905            0.0000000000
      5715      1905  TIP3      H2            -25.3471305324        2.4169051950        4.3289100322  W2        1905            0.0000000000
      5716      1906  TIP3      OH2           -35.1985105324        3.3578051950        2.5159100322  W2        1906            0.0000000000
      5717      1906  TIP3      H1            -34.9867705324        2.6514151950        1.9056600322  W2        1906            0.0000000000
      5718      1906  TIP3      H2            -35.3097605324        2.9204051950        3.3600300322  W2        1906            0.0000000000
      5719      1907  TIP3      OH2           -30.4174905324       -0.6410348050        1.4952600322  W2        1907            0.0000000000
      5720      1907  TIP3      H1            -29.7056505324       -1.2808148050        1.4811700322  W2        1907            0.0000000000
      5721      1907  TIP3      H2            -30.5184505324       -0.3742048050        0.5815700322  W2        1907            0.0000000000
      5722      1908  TIP3      OH2           -30.0637405324        1.0418051950        3.5488900322  W2        1908            0.0000000000
      5723      1908  TIP3      H1            -30.1955205324        0.5661851950        2.7287400322  W2        1908            0.0000000000
      5724      1908  TIP3      H2            -30.6630005324        1.7861651950        3.4936000322  W2        1908            0.0000000000
      5725      1909  TIP3      OH2           -30.5175105324       17.9248351950      -13.2747099678  W2        1909            0.0000000000
      5726      1909  TIP3      H1            -29.5844405324       18.0827051950      -13.1308699678  W2        1909            0.0000000000
      5727      1909  TIP3      H2            -30.7816305324       18.6001351950      -13.8995599678  W2        1909            0.0000000000
      5728      1910  TIP3      OH2           -36.9490205324       12.5612151950      -13.7918999678  W2        1910            0.0000000000
      5729      1910  TIP3      H1            -36.0351005324       12.6401051950      -13.5185099678  W2        1910            0.0000000000
      5730      1910  TIP3      H2            -36.9417105324       11.8741751950      -14.4583399678  W2        1910            0.0000000000
      5731      1911  TIP3      OH2           -38.2999605324       17.9540651950       -8.7145099678  W2        1911            0.0000000000
      5732      1911  TIP3      H1            -38.9472505324       17.4922351950       -9.2473899678  W2        1911            0.0000000000
      5733      1911  TIP3      H2            -37.9455005324       17.2823951950       -8.1318899678  W2        1911            0.0000000000
      5734      1912  TIP3      OH2           -37.4300405324       16.0347651950       -6.9098899678  W2        1912            0.0000000000
      5735      1912  TIP3      H1            -37.7643605324       15.1544951950       -6.7378699678  W2        1912            0.0000000000
      5736      1912  TIP3      H2            -37.2078005324       16.3802651950       -6.0453299678  W2        1912            0.0000000000
      5737      1913  TIP3      OH2           -19.8815605324       16.8444051950       -3.9294099678  W2        1913            0.0000000000
      5738      1913  TIP3      H1            -19.9028905324       17.0292451950       -2.9904699678  W2        1913            0.0000000000
      5739      1913  TIP3      H2            -19.1909405324       17.4128051950       -4.2702699678  W2        1913            0.0000000000
      5740      1914  TIP3      OH2           -20.3182705324       16.4115151950       -1.0074999678  W2        1914            0.0000000000
      5741      1914  TIP3      H1            -20.8054005324       15.6759251950       -1.3787599678  W2        1914            0.0000000000
      5742      1914  TIP3      H2            -19.7690005324       16.0179051950       -0.3295599678  W2        1914            0.0000000000
      5743      1915  TIP3      OH2           -21.8675405324       12.2013251950        3.6305300322  W2        1915            0.0000000000
      5744      1915  TIP3      H1            -22.7334305324       12.0962951950        4.0247600322  W2        1915            0.0000000000
      5745      1915  TIP3      H2            -21.4909505324       12.9596551950        4.0770000322  W2        1915            0.0000000000
      5746      1916  TIP3      OH2           -20.5665705324       10.4576951950      -10.8552199678  W2        1916            0.0000000000
      5747      1916  TIP3      H1            -19.7164305324       10.8787851950      -10.7280599678  W2        1916            0.0000000000
      5748      1916  TIP3      H2            -20.5610605324        9.7177051950      -10.2480799678  W2        1916            0.0000000000
      5749      1917  TIP3      OH2           -20.1720105324        8.5114351950       -9.0316499678  W2        1917            0.0000000000
      5750      1917  TIP3      H1            -20.8985505324        8.0316951950       -8.6338899678  W2        1917            0.0000000000
      5751      1917  TIP3      H2            -19.5906805324        8.7169051950       -8.2994899678  W2        1917            0.0000000000
      5752      1918  TIP3      OH2           -20.4128905324       11.2961851950       -4.0838899678  W2        1918            0.0000000000
      5753      1918  TIP3      H1            -19.5794705324       10.9181851950       -4.3645299678  W2        1918            0.0000000000
      5754      1918  TIP3      H2            -20.3008605324       12.2393051950       -4.2029799678  W2        1918            0.0000000000
      5755      1919  TIP3      OH2           -21.9266605324       14.1739351950       -1.7770499678  W2        1919            0.0000000000
      5756      1919  TIP3      H1            -22.5741305324       14.4990851950       -1.1515299678  W2        1919            0.0000000000
      5757      1919  TIP3      H2            -22.4442605324       13.7337051950       -2.4512199678  W2        1919            0.0000000000
      5758      1920  TIP3      OH2           -19.9037005324        8.4122851950      -12.6405199678  W2        1920            0.0000000000
      5759      1920  TIP3      H1            -20.4255905324        8.7686951950      -13.3594299678  W2        1920            0.0000000000
      5760      1920  TIP3      H2            -19.9367805324        9.0870651950      -11.9624299678  W2        1920            0.0000000000
      5761      1921  TIP3      OH2           -21.5548005324        5.6518451950      -14.0898099678  W2        1921            0.0000000000
      5762      1921  TIP3      H1            -21.4583605324        6.3185451950      -14.7698399678  W2        1921            0.0000000000
      5763      1921  TIP3      H2            -21.6948405324        4.8364751950      -14.5712599678  W2        1921            0.0000000000
      5764      1922  TIP3      OH2           -22.3853305324        7.0320851950       -8.4687799678  W2        1922            0.0000000000
      5765      1922  TIP3      H1            -22.5354505324        6.0869451950       -8.4889999678  W2        1922            0.0000000000
      5766      1922  TIP3      H2            -22.7388805324        7.3132251950       -7.6248699678  W2        1922            0.0000000000
      5767      1923  TIP3      OH2           -37.3500905324        9.1103051950       -4.4583999678  W2        1923            0.0000000000
      5768      1923  TIP3      H1            -37.1658005324        9.0284751950       -5.3941099678  W2        1923            0.0000000000
      5769      1923  TIP3      H2            -36.5008005324        8.9860051950       -4.0347599678  W2        1923            0.0000000000
      5770      1924  TIP3      OH2           -21.5290405324        9.0024151950        1.1700500322  W2        1924            0.0000000000
      5771      1924  TIP3      H1            -20.9463105324        8.2676451950        1.3617700322  W2        1924            0.0000000000
      5772      1924  TIP3      H2            -20.9651105324        9.7744451950        1.2166300322  W2        1924            0.0000000000
      5773      1925  TIP3      OH2           -20.0323305324        6.9049951950        1.8545900322  W2        1925            0.0000000000
      5774      1925  TIP3      H1            -20.8956605324        6.5262051950        1.6890600322  W2        1925            0.0000000000
      5775      1925  TIP3      H2            -19.4279605324        6.1664751950        1.7801700322  W2        1925            0.0000000000
      5776      1926  TIP3      OH2           -22.3074205324        3.0598251950      -14.9722599678  W2        1926            0.0000000000
      5777      1926  TIP3      H1            -21.6968405324        2.6885051950      -14.3354399678  W2        1926            0.0000000000
      5778      1926  TIP3      H2            -23.1442705324        2.6385151950      -14.7762599678  W2        1926            0.0000000000
      5779      1927  TIP3      OH2           -22.6748505324        4.6146651950      -10.0062699678  W2        1927            0.0000000000
      5780      1927  TIP3      H1            -22.3951405324        3.7077051950       -9.8820999678  W2        1927            0.0000000000
      5781      1927  TIP3      H2            -21.9156805324        5.0488151950      -10.3953499678  W2        1927            0.0000000000
      5782      1928  TIP3      OH2           -22.0630205324        5.1964051950       -4.5703799678  W2        1928            0.0000000000
      5783      1928  TIP3      H1            -21.1302205324        5.4083951950       -4.6047799678  W2        1928            0.0000000000
      5784      1928  TIP3      H2            -22.2982705324        5.2976151950       -3.6480799678  W2        1928            0.0000000000
      5785      1929  TIP3      OH2           -22.0338305324        5.9329351950       -1.7944399678  W2        1929            0.0000000000
      5786      1929  TIP3      H1            -22.8767005324        6.2009751950       -1.4284599678  W2        1929            0.0000000000
      5787      1929  TIP3      H2            -21.5914005324        6.7551251950       -2.0053299678  W2        1929            0.0000000000
      5788      1930  TIP3      OH2           -37.7526105324        4.3808051950        1.6824800322  W2        1930            0.0000000000
      5789      1930  TIP3      H1            -36.8331205324        4.2586351950        1.9187900322  W2        1930            0.0000000000
      5790      1930  TIP3      H2            -38.2021605324        3.6307751950        2.0718300322  W2        1930            0.0000000000
      5791      1931  TIP3      OH2           -19.7506705324       -0.0870448050        3.5590600322  W2        1931            0.0000000000
      5792      1931  TIP3      H1            -19.4009705324       -0.7406948050        2.9535300322  W2        1931            0.0000000000
      5793      1931  TIP3      H2            -19.6037205324        0.7503651950        3.1193200322  W2        1931            0.0000000000
      5794      1932  TIP3      OH2           -22.0613705324        1.8775951950       -9.9580699678  W2        1932            0.0000000000
      5795      1932  TIP3      H1            -21.8788705324        1.4287451950       -9.1325699678  W2        1932            0.0000000000
      5796      1932  TIP3      H2            -22.6610805324        1.2930351950      -10.4216099678  W2        1932            0.0000000000
      5797      1933  TIP3      OH2           -36.5313605324        2.6929651950       -5.4262299678  W2        1933            0.0000000000
      5798      1933  TIP3      H1            -36.0862005324        1.9012151950       -5.1242599678  W2        1933            0.0000000000
      5799      1933  TIP3      H2            -36.0650605324        3.4094851950       -4.9956699678  W2        1933            0.0000000000
      5800      1934  TIP3      OH2           -38.2273305324        5.6922651950       -4.3572099678  W2        1934            0.0000000000
      5801      1934  TIP3      H1            -37.7353505324        5.4713151950       -5.1480099678  W2        1934            0.0000000000
      5802      1934  TIP3      H2            -37.8652405324        6.5326051950       -4.0762599678  W2        1934            0.0000000000
      5803      1935  TIP3      OH2           -20.2309505324        2.0224151950        1.9081900322  W2        1935            0.0000000000
      5804      1935  TIP3      H1            -21.1483805324        2.2931251950        1.8725400322  W2        1935            0.0000000000
      5805      1935  TIP3      H2            -20.1080105324        1.4872551950        1.1241600322  W2        1935            0.0000000000
      5806      1936  TIP3      OH2           -20.1947505324        1.9454051950      -13.4300399678  W2        1936            0.0000000000
      5807      1936  TIP3      H1            -19.7824905324        1.2239751950      -13.9052399678  W2        1936            0.0000000000
      5808      1936  TIP3      H2            -19.5131005324        2.6148651950      -13.3716099678  W2        1936            0.0000000000
      5809      1937  TIP3      OH2           -37.9136805324        1.9501751950      -10.3029699678  W2        1937            0.0000000000
      5810      1937  TIP3      H1            -38.8388405324        2.1588351950      -10.4324199678  W2        1937            0.0000000000
      5811      1937  TIP3      H2            -37.4596905324        2.4342551950      -10.9927399678  W2        1937            0.0000000000
      5812      1938  TIP3      OH2           -23.1429605324       16.9343451950       -8.3572299678  W2        1938            0.0000000000
      5813      1938  TIP3      H1            -22.4906705324       16.5865551950       -8.9653199678  W2        1938            0.0000000000
      5814      1938  TIP3      H2            -22.6325805324       17.4226651950       -7.7112599678  W2        1938            0.0000000000
      5815      1939  TIP3      OH2           -37.9501405324        0.6880751950       -1.9587199678  W2        1939            0.0000000000
      5816      1939  TIP3      H1            -38.6150905324        0.4421051950       -1.3156299678  W2        1939            0.0000000000
      5817      1939  TIP3      H2            -38.3930105324        1.3101151950       -2.5359199678  W2        1939            0.0000000000
      5818      1940  TIP3      OH2           -35.7582105324       13.8634851950        2.1858600322  W2        1940            0.0000000000
      5819      1940  TIP3      H1            -36.5789605324       14.0381351950        1.7253300322  W2        1940            0.0000000000
      5820      1940  TIP3      H2            -36.0104305324       13.7899551950        3.1063000322  W2        1940            0.0000000000
      5821      1941  TIP3      OH2           -32.8039205324       14.8376051950       -1.5557399678  W2        1941            0.0000000000
      5822      1941  TIP3      H1            -33.2288105324       15.6474551950       -1.8382799678  W2        1941            0.0000000000
      5823      1941  TIP3      H2            -31.8996405324       14.9230151950       -1.8577599678  W2        1941            0.0000000000
      5824      1942  TIP3      OH2           -28.4927805324       16.2366051950        1.4036300322  W2        1942            0.0000000000
      5825      1942  TIP3      H1            -28.3080305324       15.9032151950        2.2816600322  W2        1942            0.0000000000
      5826      1942  TIP3      H2            -27.6463305324       16.5464651950        1.0815500322  W2        1942            0.0000000000
      5827      1943  TIP3      OH2           -26.1477405324       17.5224951950        0.6477700322  W2        1943            0.0000000000
      5828      1943  TIP3      H1            -25.4708505324       16.8897251950        0.4076900322  W2        1943            0.0000000000
      5829      1943  TIP3      H2            -25.8258605324       17.9235451950        1.4551000322  W2        1943            0.0000000000
      5830      1944  TIP3      OH2           -21.2303605324        0.1120451950       -0.2727299678  W2        1944            0.0000000000
      5831      1944  TIP3      H1            -22.0430105324        0.4370751950       -0.6602599678  W2        1944            0.0000000000
      5832      1944  TIP3      H2            -20.9975105324       -0.6481048050       -0.8058199678  W2        1944            0.0000000000
      5833      1945  TIP3      OH2           -35.4022505324       18.0939951950       -1.5082099678  W2        1945            0.0000000000
      5834      1945  TIP3      H1            -36.1226105324       18.5340951950       -1.9594399678  W2        1945            0.0000000000
      5835      1945  TIP3      H2            -35.7678505324       17.8434651950       -0.6598099678  W2        1945            0.0000000000
      5836      1946  TIP3      OH2           -32.9349905324       17.6943851950       -2.4784899678  W2        1946            0.0000000000
      5837      1946  TIP3      H1            -33.7997705324       17.7662351950       -2.0744799678  W2        1946            0.0000000000
      5838      1946  TIP3      H2            -32.9900905324       18.2411151950       -3.2622399678  W2        1946            0.0000000000
      5839      1947  TIP3      OH2           -28.2244305324       17.5822751950       -3.3028899678  W2        1947            0.0000000000
      5840      1947  TIP3      H1            -28.6810305324       18.1112451950       -3.9570499678  W2        1947            0.0000000000
      5841      1947  TIP3      H2            -28.0616305324       18.1854151950       -2.5776599678  W2        1947            0.0000000000
      5842      1948  TIP3      OH2           -25.8968005324       16.4602351950       -2.3578599678  W2        1948            0.0000000000
      5843      1948  TIP3      H1            -26.8014305324       16.6252551950       -2.6236499678  W2        1948            0.0000000000
      5844      1948  TIP3      H2            -25.4679405324       17.3134551950       -2.4235199678  W2        1948            0.0000000000
      5845      1949  TIP3      OH2           -23.2926105324       18.0301451950       -2.0630799678  W2        1949            0.0000000000
      5846      1949  TIP3      H1            -23.4744105324       18.9460351950       -2.2735899678  W2        1949            0.0000000000
      5847      1949  TIP3      H2            -23.1158305324       17.6198551950       -2.9096199678  W2        1949            0.0000000000
      5848      1950  TIP3      OH2           -35.9874405324       16.7172451950       -4.5980299678  W2        1950            0.0000000000
      5849      1950  TIP3      H1            -36.0058405324       16.2917551950       -3.7407999678  W2        1950            0.0000000000
      5850      1950  TIP3      H2            -35.1826505324       16.3987451950       -5.0068099678  W2        1950            0.0000000000
      5851      1951  TIP3      OH2           -33.8461305324       15.4271151950       -5.9430399678  W2        1951            0.0000000000
      5852      1951  TIP3      H1            -34.0650605324       14.5108551950       -5.7734399678  W2        1951            0.0000000000
      5853      1951  TIP3      H2            -33.0219105324       15.5671551950       -5.4768999678  W2        1951            0.0000000000
      5854      1952  TIP3      OH2           -31.3088805324       15.8970451950       -5.0942399678  W2        1952            0.0000000000
      5855      1952  TIP3      H1            -31.0963105324       15.0089451950       -5.3811499678  W2        1952            0.0000000000
      5856      1952  TIP3      H2            -31.2443705324       15.8628151950       -4.1398399678  W2        1952            0.0000000000
      5857      1953  TIP3      OH2           -27.8005105324        1.5611051950       -5.9499099678  W2        1953            0.0000000000
      5858      1953  TIP3      H1            -28.4748305324        0.9316651950       -5.6943299678  W2        1953            0.0000000000
      5859      1953  TIP3      H2            -27.2365905324        1.0769951950       -6.5531199678  W2        1953            0.0000000000
      5860      1954  TIP3      OH2           -22.6577905324       -0.3314948050       -5.8371999678  W2        1954            0.0000000000
      5861      1954  TIP3      H1            -22.0540305324        0.2160451950       -6.3390999678  W2        1954            0.0000000000
      5862      1954  TIP3      H2            -23.5275905324       -0.0124548050       -6.0777899678  W2        1954            0.0000000000
      5863      1955  TIP3      OH2           -20.9307505324        0.8073751950       -7.5041099678  W2        1955            0.0000000000
      5864      1955  TIP3      H1            -20.3190005324        0.2929451950       -8.0307499678  W2        1955            0.0000000000
      5865      1955  TIP3      H2            -20.5484105324        1.6845851950       -7.4806699678  W2        1955            0.0000000000
      5866      1956  TIP3      OH2           -35.4737605324        0.1951351950       -8.1279199678  W2        1956            0.0000000000
      5867      1956  TIP3      H1            -36.2507805324       -0.0393748050       -8.6353299678  W2        1956            0.0000000000
      5868      1956  TIP3      H2            -34.9434005324       -0.6016548050       -8.1191199678  W2        1956            0.0000000000
      5869      1957  TIP3      OH2           -36.6374205324       -0.0070548050      -12.3243099678  W2        1957            0.0000000000
      5870      1957  TIP3      H1            -36.1983505324        0.6039951950      -12.9159599678  W2        1957            0.0000000000
      5871      1957  TIP3      H2            -37.2711805324        0.5313551950      -11.8503099678  W2        1957            0.0000000000
      5872      1958  TIP3      OH2           -30.8945005324        0.1218451950       -8.3146099678  W2        1958            0.0000000000
      5873      1958  TIP3      H1            -30.0201605324        0.5102751950       -8.3441799678  W2        1958            0.0000000000
      5874      1958  TIP3      H2            -31.0304205324       -0.0933748050       -7.3918899678  W2        1958            0.0000000000
      5875      1959  TIP3      OH2           -25.3376605324        0.1518251950       -6.6654399678  W2        1959            0.0000000000
      5876      1959  TIP3      H1            -25.2615005324        0.2469851950       -7.6148399678  W2        1959            0.0000000000
      5877      1959  TIP3      H2            -25.6127405324       -0.7558848050       -6.5365299678  W2        1959            0.0000000000
      5878      1960  TIP3      OH2           -23.9844005324        0.1776051950      -10.9729399678  W2        1960            0.0000000000
      5879      1960  TIP3      H1            -24.6872905324        0.7925251950      -11.1827999678  W2        1960            0.0000000000
      5880      1960  TIP3      H2            -24.4292605324       -0.6597248050      -10.8418499678  W2        1960            0.0000000000
      5881      1961  TIP3      OH2           -36.7364705324       15.9411651950      -11.4267999678  W2        1961            0.0000000000
      5882      1961  TIP3      H1            -37.4214805324       15.9030551950      -12.0942899678  W2        1961            0.0000000000
      5883      1961  TIP3      H2            -36.7327505324       16.8539251950      -11.1385899678  W2        1961            0.0000000000
      5884      1962  TIP3      OH2           -34.7765105324        1.9090951950      -13.8818999678  W2        1962            0.0000000000
      5885      1962  TIP3      H1            -34.2851705324        1.2793351950      -14.4093499678  W2        1962            0.0000000000
      5886      1962  TIP3      H2            -34.1528805324        2.2050351950      -13.2187799678  W2        1962            0.0000000000
      5887      1963  TIP3      OH2           -29.7505005324        2.2022451950      -11.4248499678  W2        1963            0.0000000000
      5888      1963  TIP3      H1            -29.5723705324        1.5555651950      -10.7419899678  W2        1963            0.0000000000
      5889      1963  TIP3      H2            -29.8038805324        3.0360151950      -10.9577399678  W2        1963            0.0000000000
      5890      1964  TIP3      OH2           -27.8721205324       17.1506551950      -13.0291799678  W2        1964            0.0000000000
      5891      1964  TIP3      H1            -27.0061005324       17.5173951950      -13.2073599678  W2        1964            0.0000000000
      5892      1964  TIP3      H2            -28.1188405324       16.7114551950      -13.8430999678  W2        1964            0.0000000000
      5893      1965  TIP3      OH2           -21.1631605324       16.7136851950      -10.3500699678  W2        1965            0.0000000000
      5894      1965  TIP3      H1            -21.3574505324       15.9658951950      -10.9151099678  W2        1965            0.0000000000
      5895      1965  TIP3      H2            -21.2021505324       17.4716951950      -10.9332799678  W2        1965            0.0000000000
      5896      1966  TIP3      OH2           -35.5159605324        0.7093251950        1.3897000322  W2        1966            0.0000000000
      5897      1966  TIP3      H1            -35.8821405324       -0.0564148050        1.8321700322  W2        1966            0.0000000000
      5898      1966  TIP3      H2            -34.6031105324        0.7383451950        1.6762100322  W2        1966            0.0000000000
      5899      1967  TIP3      OH2           -33.5428805324        0.0597651950        2.9254100322  W2        1967            0.0000000000
      5900      1967  TIP3      H1            -32.6445205324       -0.2142148050        2.7407500322  W2        1967            0.0000000000
      5901      1967  TIP3      H2            -33.9295705324       -0.6826348050        3.3896700322  W2        1967            0.0000000000
      5902      1968  TIP3      OH2           -34.9183505324       16.8612451950      -14.4015899678  W2        1968            0.0000000000
      5903      1968  TIP3      H1            -35.1858905324       17.1475351950      -13.5282799678  W2        1968            0.0000000000
      5904      1968  TIP3      H2            -34.1470905324       16.3151651950      -14.2493399678  W2        1968            0.0000000000
      5905      1969  TIP3      OH2           -25.1216505324       -0.6077048050        3.1076900322  W2        1969            0.0000000000
      5906      1969  TIP3      H1            -25.0449305324       -1.0336348050        3.9614600322  W2        1969            0.0000000000
      5907      1969  TIP3      H2            -24.2279905324       -0.5942348050        2.7650400322  W2        1969            0.0000000000
      5908      1970  TIP3      OH2           -21.9455405324       15.4649251950        1.8001100322  W2        1970            0.0000000000
      5909      1970  TIP3      H1            -22.7273505324       15.2787251950        1.2801700322  W2        1970            0.0000000000
      5910      1970  TIP3      H2            -22.0175505324       16.3943551950        2.0173600322  W2        1970            0.0000000000
      5911      1971  TIP3      OH2            -7.5395005324        9.3513651950       -8.1691699678  W2        1971            0.0000000000
      5912      1971  TIP3      H1             -7.4503905324       10.2951851950       -8.3014599678  W2        1971            0.0000000000
      5913      1971  TIP3      H2             -8.1777405324        9.0760051950       -8.8272299678  W2        1971            0.0000000000
      5914      1972  TIP3      OH2            -8.6063705324        8.6064351950       -4.7503499678  W2        1972            0.0000000000
      5915      1972  TIP3      H1             -8.6446205324        7.9600651950       -4.0453899678  W2        1972            0.0000000000
      5916      1972  TIP3      H2             -8.9287205324        8.1398751950       -5.5214799678  W2        1972            0.0000000000
      5917      1973  TIP3      OH2           -16.2378705324        8.2206451950       -3.1573599678  W2        1973            0.0000000000
      5918      1973  TIP3      H1            -16.1966605324        7.5949751950       -2.4341199678  W2        1973            0.0000000000
      5919      1973  TIP3      H2            -15.5351005324        8.8445051950       -2.9753199678  W2        1973            0.0000000000
      5920      1974  TIP3      OH2            -4.9003505324       11.5454751950       -6.4488399678  W2        1974            0.0000000000
      5921      1974  TIP3      H1             -5.3410805324       10.8250751950       -5.9982799678  W2        1974            0.0000000000
      5922      1974  TIP3      H2             -4.9133805324       12.2661951950       -5.8190699678  W2        1974            0.0000000000
      5923      1975  TIP3      OH2           -15.3145605324       12.6705351950       -4.6224499678  W2        1975            0.0000000000
      5924      1975  TIP3      H1            -15.6840405324       11.8685851950       -4.9920199678  W2        1975            0.0000000000
      5925      1975  TIP3      H2            -14.3734505324       12.5020251950       -4.5761099678  W2        1975            0.0000000000
      5926      1976  TIP3      OH2           -18.7045105324        6.3307951950       -9.2295699678  W2        1976            0.0000000000
      5927      1976  TIP3      H1            -19.1521705324        7.1766651950       -9.2479199678  W2        1976            0.0000000000
      5928      1976  TIP3      H2            -19.2653905324        5.7512151950       -9.7450599678  W2        1976            0.0000000000
      5929      1977  TIP3      OH2           -17.9939005324        8.4927551950       -7.1037699678  W2        1977            0.0000000000
      5930      1977  TIP3      H1            -17.7805505324        7.7229151950       -6.5764699678  W2        1977            0.0000000000
      5931      1977  TIP3      H2            -17.2561405324        8.5824251950       -7.7070099678  W2        1977            0.0000000000
      5932      1978  TIP3      OH2            -7.7888005324       16.6496451950       -6.2367999678  W2        1978            0.0000000000
      5933      1978  TIP3      H1             -7.1691605324       15.9731151950       -6.5098799678  W2        1978            0.0000000000
      5934      1978  TIP3      H2             -7.9970605324       16.4317251950       -5.3283099678  W2        1978            0.0000000000
      5935      1979  TIP3      OH2           -10.2169305324       11.0385751950       -4.3442499678  W2        1979            0.0000000000
      5936      1979  TIP3      H1             -9.9131405324       10.3527151950       -4.9388399678  W2        1979            0.0000000000
      5937      1979  TIP3      H2             -9.4955305324       11.1574451950       -3.7264499678  W2        1979            0.0000000000
      5938      1980  TIP3      OH2            -1.5539505324        2.6401051950       -3.4836299678  W2        1980            0.0000000000
      5939      1980  TIP3      H1             -1.5047305324        3.2502251950       -2.7477199678  W2        1980            0.0000000000
      5940      1980  TIP3      H2             -1.1284405324        3.1011951950       -4.2065199678  W2        1980            0.0000000000
      5941      1981  TIP3      OH2            -7.0762305324        5.4328151950       -4.0167699678  W2        1981            0.0000000000
      5942      1981  TIP3      H1             -6.9336405324        4.4865151950       -3.9966099678  W2        1981            0.0000000000
      5943      1981  TIP3      H2             -7.1823305324        5.6397951950       -4.9452799678  W2        1981            0.0000000000
      5944      1982  TIP3      OH2           -13.9214005324        3.5344551950       -6.7442899678  W2        1982            0.0000000000
      5945      1982  TIP3      H1            -13.8782905324        4.3943051950       -7.1626599678  W2        1982            0.0000000000
      5946      1982  TIP3      H2            -14.3789905324        2.9819251950       -7.3779699678  W2        1982            0.0000000000
      5947      1983  TIP3      OH2            -6.1991305324        3.6650151950       -8.3434599678  W2        1983            0.0000000000
      5948      1983  TIP3      H1             -5.5527005324        3.3363351950       -7.7186999678  W2        1983            0.0000000000
      5949      1983  TIP3      H2             -5.6891905324        4.1829151950       -8.9663199678  W2        1983            0.0000000000
      5950      1984  TIP3      OH2           -17.3012505324        5.9310351950       -5.9821499678  W2        1984            0.0000000000
      5951      1984  TIP3      H1            -16.6475905324        5.3812051950       -5.5501399678  W2        1984            0.0000000000
      5952      1984  TIP3      H2            -17.2773205324        5.6569351950       -6.8989499678  W2        1984            0.0000000000
      5953      1985  TIP3      OH2           -12.1448005324        7.4811651950       -6.7669999678  W2        1985            0.0000000000
      5954      1985  TIP3      H1            -11.5287005324        6.9547051950       -6.2575999678  W2        1985            0.0000000000
      5955      1985  TIP3      H2            -12.7309205324        6.8410351950       -7.1706399678  W2        1985            0.0000000000
      5956      1986  TIP3      OH2            -1.1624905324        4.1180251950       -1.2476499678  W2        1986            0.0000000000
      5957      1986  TIP3      H1             -1.8510305324        4.7760951950       -1.3429899678  W2        1986            0.0000000000
      5958      1986  TIP3      H2             -1.1470305324        3.9208151950       -0.3111099678  W2        1986            0.0000000000
      5959      1987  TIP3      OH2           -15.1112105324        2.4522951950       -2.6702099678  W2        1987            0.0000000000
      5960      1987  TIP3      H1            -15.3300405324        2.9823551950       -3.4366099678  W2        1987            0.0000000000
      5961      1987  TIP3      H2            -15.7791205324        2.6788451950       -2.0230699678  W2        1987            0.0000000000
      5962      1988  TIP3      OH2            -7.7422305324       11.9524051950       -9.1262999678  W2        1988            0.0000000000
      5963      1988  TIP3      H1             -8.0377205324       11.6296351950       -9.9776099678  W2        1988            0.0000000000
      5964      1988  TIP3      H2             -8.0664505324       12.8520751950       -9.0850399678  W2        1988            0.0000000000
      5965      1989  TIP3      OH2           -12.5420705324       10.1278651950       -2.3828399678  W2        1989            0.0000000000
      5966      1989  TIP3      H1            -13.2821605324       10.7260151950       -2.2793199678  W2        1989            0.0000000000
      5967      1989  TIP3      H2            -11.8281205324       10.6818251950       -2.6984799678  W2        1989            0.0000000000
      5968      1990  TIP3      OH2            -4.4352905324        2.9559451950       -6.3628699678  W2        1990            0.0000000000
      5969      1990  TIP3      H1             -4.6504905324        2.1902851950       -5.8302699678  W2        1990            0.0000000000
      5970      1990  TIP3      H2             -3.7795505324        3.4284051950       -5.8500199678  W2        1990            0.0000000000
      5971      1991  TIP3      OH2           -15.5174805324        4.3444751950       -4.7179899678  W2        1991            0.0000000000
      5972      1991  TIP3      H1            -14.9038505324        4.9772351950       -4.3447499678  W2        1991            0.0000000000
      5973      1991  TIP3      H2            -15.0054105324        3.8719751950       -5.3742999678  W2        1991            0.0000000000
      5974      1992  TIP3      OH2           -14.1346405324       12.0921651950       -1.5956899678  W2        1992            0.0000000000
      5975      1992  TIP3      H1            -14.1398805324       12.9715151950       -1.9737599678  W2        1992            0.0000000000
      5976      1992  TIP3      H2            -14.9882305324       12.0085751950       -1.1706999678  W2        1992            0.0000000000
      5977      1993  TIP3      OH2           -18.0135505324       11.7629551950      -10.8137599678  W2        1993            0.0000000000
      5978      1993  TIP3      H1            -18.2854605324       11.9920551950      -11.7024699678  W2        1993            0.0000000000
      5979      1993  TIP3      H2            -17.9679805324       12.6008351950      -10.3532299678  W2        1993            0.0000000000
      5980      1994  TIP3      OH2            -4.3885805324       13.3845451950       -4.1009099678  W2        1994            0.0000000000
      5981      1994  TIP3      H1             -5.3302105324       13.4429351950       -3.9392199678  W2        1994            0.0000000000
      5982      1994  TIP3      H2             -4.1119705324       14.2905951950       -4.2379399678  W2        1994            0.0000000000
      5983      1995  TIP3      OH2            -4.0878805324        1.6710751950       -2.6835199678  W2        1995            0.0000000000
      5984      1995  TIP3      H1             -4.8239605324        2.2817851950       -2.7213899678  W2        1995            0.0000000000
      5985      1995  TIP3      H2             -3.4044805324        2.0859751950       -3.2098799678  W2        1995            0.0000000000
      5986      1996  TIP3      OH2           -11.0847405324       -0.2421948050       -5.2177199678  W2        1996            0.0000000000
      5987      1996  TIP3      H1            -11.2023205324       -1.1905948050       -5.2718899678  W2        1996            0.0000000000
      5988      1996  TIP3      H2            -11.9397305324        0.0904151950       -4.9446099678  W2        1996            0.0000000000
      5989      1997  TIP3      OH2            -6.1364605324       15.1658951950       -7.4757499678  W2        1997            0.0000000000
      5990      1997  TIP3      H1             -5.7112305324       14.4586851950       -7.9607899678  W2        1997            0.0000000000
      5991      1997  TIP3      H2             -5.8194605324       15.9671651950       -7.8925299678  W2        1997            0.0000000000
      5992      1998  TIP3      OH2            -4.9768105324       13.0667451950       -8.9670899678  W2        1998            0.0000000000
      5993      1998  TIP3      H1             -5.2343305324       12.3767551950       -9.5784999678  W2        1998            0.0000000000
      5994      1998  TIP3      H2             -4.9057305324       12.6238651950       -8.1214999678  W2        1998            0.0000000000
      5995      1999  TIP3      OH2            -3.2907905324       11.6334151950       -0.4897399678  W2        1999            0.0000000000
      5996      1999  TIP3      H1             -3.1511605324       11.0416651950       -1.2290399678  W2        1999            0.0000000000
      5997      1999  TIP3      H2             -3.1235105324       12.5060051950       -0.8458599678  W2        1999            0.0000000000
      5998      2000  TIP3      OH2            -8.8182505324        8.5953651950      -10.7171399678  W2        2000            0.0000000000
      5999      2000  TIP3      H1             -9.5297005324        9.1303351950      -11.0690899678  W2        2000            0.0000000000
      6000      2000  TIP3      H2             -8.1272905324        8.6505751950      -11.3772499678  W2        2000            0.0000000000
      6001      2001  TIP3      OH2            -8.7643305324        7.0527951950      -13.6786399678  W2        2001            0.0000000000
      6002      2001  TIP3      H1             -8.0633405324        7.0754851950      -13.0272399678  W2        2001            0.0000000000
      6003      2001  TIP3      H2             -8.4620405324        6.4247651950      -14.3347099678  W2        2001            0.0000000000
      6004      2002  TIP3      OH2            -1.4488605324        7.9732151950       -2.4236999678  W2        2002            0.0000000000
      6005      2002  TIP3      H1             -2.1014505324        8.6677751950       -2.3346099678  W2        2002            0.0000000000
      6006      2002  TIP3      H2             -0.9838305324        8.1833051950       -3.2335399678  W2        2002            0.0000000000
      6007      2003  TIP3      OH2            -5.4124805324        8.8046951950       -9.7655499678  W2        2003            0.0000000000
      6008      2003  TIP3      H1             -6.1443805324        9.0330651950       -9.1924899678  W2        2003            0.0000000000
      6009      2003  TIP3      H2             -4.9652605324        8.0909651950       -9.3107999678  W2        2003            0.0000000000
      6010      2004  TIP3      OH2            -5.5151305324        6.9789551950       -0.6978499678  W2        2004            0.0000000000
      6011      2004  TIP3      H1             -5.4352205324        7.7423951950       -0.1259999678  W2        2004            0.0000000000
      6012      2004  TIP3      H2             -6.1163605324        7.2581951950       -1.3883399678  W2        2004            0.0000000000
      6013      2005  TIP3      OH2           -13.7671105324        9.4353151950       -7.8830499678  W2        2005            0.0000000000
      6014      2005  TIP3      H1            -14.0975905324        9.0646551950       -8.7013499678  W2        2005            0.0000000000
      6015      2005  TIP3      H2            -13.1787005324        8.7647151950       -7.5362199678  W2        2005            0.0000000000
      6016      2006  TIP3      OH2           -12.4003605324       12.8633751950       -5.2018299678  W2        2006            0.0000000000
      6017      2006  TIP3      H1            -12.4952305324       12.2846851950       -5.9583699678  W2        2006            0.0000000000
      6018      2006  TIP3      H2            -11.6710005324       12.4919451950       -4.7055499678  W2        2006            0.0000000000
      6019      2007  TIP3      OH2           -13.4005605324        8.2038751950       -4.2495499678  W2        2007            0.0000000000
      6020      2007  TIP3      H1            -12.8353105324        8.3252951950       -5.0124299678  W2        2007            0.0000000000
      6021      2007  TIP3      H2            -13.0816705324        8.8413751950       -3.6106999678  W2        2007            0.0000000000
      6022      2008  TIP3      OH2            -7.0913405324       13.7070651950       -3.5154999678  W2        2008            0.0000000000
      6023      2008  TIP3      H1             -7.3316805324       14.3693751950       -2.8675799678  W2        2008            0.0000000000
      6024      2008  TIP3      H2             -7.2895205324       12.8725851950       -3.0905399678  W2        2008            0.0000000000
      6025      2009  TIP3      OH2           -12.5204905324       12.6031451950        0.4676400322  W2        2009            0.0000000000
      6026      2009  TIP3      H1            -12.8317405324       13.3854651950        0.9229600322  W2        2009            0.0000000000
      6027      2009  TIP3      H2            -13.1704705324       12.4500551950       -0.2181599678  W2        2009            0.0000000000
      6028      2010  TIP3      OH2            -6.5415305324        7.9669851950      -12.0804299678  W2        2010            0.0000000000
      6029      2010  TIP3      H1             -5.9619805324        8.1170151950      -11.3335399678  W2        2010            0.0000000000
      6030      2010  TIP3      H2             -6.1275305324        8.4377251950      -12.8037899678  W2        2010            0.0000000000
      6031      2011  TIP3      OH2           -15.6005005324        8.8012551950       -0.3037899678  W2        2011            0.0000000000
      6032      2011  TIP3      H1            -15.5301805324        9.4519351950        0.3947100322  W2        2011            0.0000000000
      6033      2011  TIP3      H2            -16.4912805324        8.9040051950       -0.6386999678  W2        2011            0.0000000000
      6034      2012  TIP3      OH2            -8.8150405324       14.7038351950       -8.6451199678  W2        2012            0.0000000000
      6035      2012  TIP3      H1             -8.3412805324       14.9994651950       -7.8676999678  W2        2012            0.0000000000
      6036      2012  TIP3      H2             -9.3781105324       15.4419951950       -8.8781599678  W2        2012            0.0000000000
      6037      2013  TIP3      OH2           -14.2809005324       14.6746451950        1.2310200322  W2        2013            0.0000000000
      6038      2013  TIP3      H1            -14.2733705324       14.5386151950        0.2835700322  W2        2013            0.0000000000
      6039      2013  TIP3      H2            -15.1968605324       14.5574551950        1.4830200322  W2        2013            0.0000000000
      6040      2014  TIP3      OH2            -2.8426905324       -0.2829748050      -12.2674599678  W2        2014            0.0000000000
      6041      2014  TIP3      H1             -3.7426205324       -0.1440748050      -11.9723999678  W2        2014            0.0000000000
      6042      2014  TIP3      H2             -2.5908505324        0.5484851950      -12.6692899678  W2        2014            0.0000000000
      6043      2015  TIP3      OH2           -14.7768405324        8.5047451950      -10.2937699678  W2        2015            0.0000000000
      6044      2015  TIP3      H1            -15.0687105324        9.2729151950      -10.7846399678  W2        2015            0.0000000000
      6045      2015  TIP3      H2            -15.4513205324        7.8453651950      -10.4566299678  W2        2015            0.0000000000
      6046      2016  TIP3      OH2            -1.6535505324       14.0832651950      -13.8910699678  W2        2016            0.0000000000
      6047      2016  TIP3      H1             -1.5802005324       15.0222851950      -13.7205399678  W2        2016            0.0000000000
      6048      2016  TIP3      H2             -0.7480405324       13.7781251950      -13.9473399678  W2        2016            0.0000000000
      6049      2017  TIP3      OH2           -18.6838305324       10.8676651950       -1.4787899678  W2        2017            0.0000000000
      6050      2017  TIP3      H1            -19.1849905324       10.8396051950       -2.2938199678  W2        2017            0.0000000000
      6051      2017  TIP3      H2            -18.6784605324        9.9619851950       -1.1690599678  W2        2017            0.0000000000
      6052      2018  TIP3      OH2           -18.9335605324       13.6480451950       -4.5947699678  W2        2018            0.0000000000
      6053      2018  TIP3      H1            -17.9875005324       13.5037451950       -4.6138199678  W2        2018            0.0000000000
      6054      2018  TIP3      H2            -19.0459305324       14.4323251950       -4.0576499678  W2        2018            0.0000000000
      6055      2019  TIP3      OH2            -0.7357105324       14.3140151950        1.0876000322  W2        2019            0.0000000000
      6056      2019  TIP3      H1             -0.7850305324       13.3588251950        1.0503600322  W2        2019            0.0000000000
      6057      2019  TIP3      H2             -1.5624805324       14.5815451950        1.4889800322  W2        2019            0.0000000000
      6058      2020  TIP3      OH2            -9.7573105324       13.8879351950       -0.0362599678  W2        2020            0.0000000000
      6059      2020  TIP3      H1             -9.6698505324       14.7143951950        0.4386500322  W2        2020            0.0000000000
      6060      2020  TIP3      H2            -10.6208005324       13.5583151950        0.2126700322  W2        2020            0.0000000000
      6061      2021  TIP3      OH2            -9.3427305324       17.6603051950      -10.2301999678  W2        2021            0.0000000000
      6062      2021  TIP3      H1             -9.4181305324       17.5390251950      -11.1766799678  W2        2021            0.0000000000
      6063      2021  TIP3      H2             -9.3098605324       18.6095751950      -10.1117399678  W2        2021            0.0000000000
      6064      2022  TIP3      OH2           -15.6893505324       16.4490051950       -8.4492999678  W2        2022            0.0000000000
      6065      2022  TIP3      H1            -15.5373105324       16.1010451950       -7.5706499678  W2        2022            0.0000000000
      6066      2022  TIP3      H2            -16.5403105324       16.0927351950       -8.7045799678  W2        2022            0.0000000000
      6067      2023  TIP3      OH2            -6.2411305324       16.8143251950      -13.2279599678  W2        2023            0.0000000000
      6068      2023  TIP3      H1             -5.8662905324       16.0699351950      -13.6986999678  W2        2023            0.0000000000
      6069      2023  TIP3      H2             -6.2367605324       16.5443851950      -12.3096299678  W2        2023            0.0000000000
      6070      2024  TIP3      OH2            -6.5723205324       16.7400351950      -10.4787399678  W2        2024            0.0000000000
      6071      2024  TIP3      H1             -7.5073405324       16.8402251950      -10.3000399678  W2        2024            0.0000000000
      6072      2024  TIP3      H2             -6.2921305324       16.0306351950       -9.9004199678  W2        2024            0.0000000000
      6073      2025  TIP3      OH2            -3.5837305324        5.8072651950        1.5678200322  W2        2025            0.0000000000
      6074      2025  TIP3      H1             -3.9910505324        6.2878251950        0.8471500322  W2        2025            0.0000000000
      6075      2025  TIP3      H2             -3.5431605324        4.9018651950        1.2599000322  W2        2025            0.0000000000
      6076      2026  TIP3      OH2           -16.4347805324       12.1912051950       -0.4355099678  W2        2026            0.0000000000
      6077      2026  TIP3      H1            -16.2186505324       11.8297651950        0.4240700322  W2        2026            0.0000000000
      6078      2026  TIP3      H2            -17.2903105324       11.8165851950       -0.6451599678  W2        2026            0.0000000000
      6079      2027  TIP3      OH2           -13.8159805324        0.6612551950       -4.4400899678  W2        2027            0.0000000000
      6080      2027  TIP3      H1            -14.6776105324        0.5740751950       -4.8477999678  W2        2027            0.0000000000
      6081      2027  TIP3      H2            -13.8384105324        1.5172651950       -4.0123299678  W2        2027            0.0000000000
      6082      2028  TIP3      OH2            -9.1532005324        0.3832951950       -1.0653899678  W2        2028            0.0000000000
      6083      2028  TIP3      H1             -8.7328905324       -0.0319948050       -0.3123299678  W2        2028            0.0000000000
      6084      2028  TIP3      H2            -10.0862405324        0.2046251950       -0.9481899678  W2        2028            0.0000000000
      6085      2029  TIP3      OH2            -5.8267105324        4.1388151950       -0.2119399678  W2        2029            0.0000000000
      6086      2029  TIP3      H1             -6.3407605324        4.0130351950        0.5856600322  W2        2029            0.0000000000
      6087      2029  TIP3      H2             -5.9822405324        5.0511251950       -0.4563199678  W2        2029            0.0000000000
      6088      2030  TIP3      OH2            -5.0642205324        8.9998151950      -14.4506399678  W2        2030            0.0000000000
      6089      2030  TIP3      H1             -5.0221405324        8.7772051950      -15.3806399678  W2        2030            0.0000000000
      6090      2030  TIP3      H2             -4.2150105324        9.3985251950      -14.2606499678  W2        2030            0.0000000000
      6091      2031  TIP3      OH2            -9.4914705324        2.8756351950      -13.7803099678  W2        2031            0.0000000000
      6092      2031  TIP3      H1             -9.7449905324        2.8947951950      -12.8574999678  W2        2031            0.0000000000
      6093      2031  TIP3      H2             -9.7482605324        2.0041751950      -14.0816899678  W2        2031            0.0000000000
      6094      2032  TIP3      OH2           -13.7249705324        5.6267051950       -3.3450699678  W2        2032            0.0000000000
      6095      2032  TIP3      H1            -14.3667605324        5.5864351950       -2.6360599678  W2        2032            0.0000000000
      6096      2032  TIP3      H2            -13.6877705324        6.5531751950       -3.5827699678  W2        2032            0.0000000000
      6097      2033  TIP3      OH2           -13.7280605324        5.8477151950       -8.4330699678  W2        2033            0.0000000000
      6098      2033  TIP3      H1            -14.6207705324        5.5073251950       -8.4916899678  W2        2033            0.0000000000
      6099      2033  TIP3      H2            -13.2774005324        5.4708051950       -9.1887499678  W2        2033            0.0000000000
      6100      2034  TIP3      OH2            -8.1925105324        6.2637451950       -9.6159899678  W2        2034            0.0000000000
      6101      2034  TIP3      H1             -8.6014805324        7.0786051950       -9.9075099678  W2        2034            0.0000000000
      6102      2034  TIP3      H2             -7.4718905324        6.1237551950      -10.2302799678  W2        2034            0.0000000000
      6103      2035  TIP3      OH2            -9.0903505324        6.4393851950        1.8720800322  W2        2035            0.0000000000
      6104      2035  TIP3      H1             -9.6529705324        5.7345451950        2.1928600322  W2        2035            0.0000000000
      6105      2035  TIP3      H2             -8.2640105324        6.3185751950        2.3398400322  W2        2035            0.0000000000
      6106      2036  TIP3      OH2            -7.1877405324        5.7097851950       -6.8020199678  W2        2036            0.0000000000
      6107      2036  TIP3      H1             -7.3832905324        6.3154651950       -7.5169599678  W2        2036            0.0000000000
      6108      2036  TIP3      H2             -7.0064805324        4.8763051950       -7.2363899678  W2        2036            0.0000000000
      6109      2037  TIP3      OH2           -15.9749205324        5.9470551950       -1.4778699678  W2        2037            0.0000000000
      6110      2037  TIP3      H1            -16.0129805324        6.3472151950       -0.6091599678  W2        2037            0.0000000000
      6111      2037  TIP3      H2            -16.4658105324        5.1302951950       -1.3875799678  W2        2037            0.0000000000
      6112      2038  TIP3      OH2           -12.6091805324        3.3212851950      -14.6792699678  W2        2038            0.0000000000
      6113      2038  TIP3      H1            -13.0401105324        2.8762951950      -13.9495299678  W2        2038            0.0000000000
      6114      2038  TIP3      H2            -13.3273105324        3.6929151950      -15.1915199678  W2        2038            0.0000000000
      6115      2039  TIP3      OH2           -19.3668405324        3.0632351950       -7.6273999678  W2        2039            0.0000000000
      6116      2039  TIP3      H1            -18.7360705324        3.0344451950       -6.9080099678  W2        2039            0.0000000000
      6117      2039  TIP3      H2            -18.9174105324        2.6381051950       -8.3578099678  W2        2039            0.0000000000
      6118      2040  TIP3      OH2           -18.0926305324        3.8094351950      -12.2033599678  W2        2040            0.0000000000
      6119      2040  TIP3      H1            -17.6184605324        4.4004251950      -12.7882699678  W2        2040            0.0000000000
      6120      2040  TIP3      H2            -18.8099905324        4.3397251950      -11.8563499678  W2        2040            0.0000000000
      6121      2041  TIP3      OH2            -7.9238205324        7.3479151950       -2.1307799678  W2        2041            0.0000000000
      6122      2041  TIP3      H1             -7.6003405324        6.7168851950       -2.7737299678  W2        2041            0.0000000000
      6123      2041  TIP3      H2             -8.3638905324        6.8131351950       -1.4700399678  W2        2041            0.0000000000
      6124      2042  TIP3      OH2           -11.1465305324        3.2754651950       -7.3466599678  W2        2042            0.0000000000
      6125      2042  TIP3      H1            -12.0574205324        3.3321451950       -7.0580599678  W2        2042            0.0000000000
      6126      2042  TIP3      H2            -10.6412405324        3.2150151950       -6.5359399678  W2        2042            0.0000000000
      6127      2043  TIP3      OH2           -16.3181905324        4.9040951950       -8.5198999678  W2        2043            0.0000000000
      6128      2043  TIP3      H1            -17.2073905324        5.0036451950       -8.8599399678  W2        2043            0.0000000000
      6129      2043  TIP3      H2            -16.0217005324        4.0623951950       -8.8661099678  W2        2043            0.0000000000
      6130      2044  TIP3      OH2           -12.6650105324        4.9043551950      -10.8634399678  W2        2044            0.0000000000
      6131      2044  TIP3      H1            -11.7334605324        5.0333551950      -10.6851299678  W2        2044            0.0000000000
      6132      2044  TIP3      H2            -12.8799805324        5.5737851950      -11.5129699678  W2        2044            0.0000000000
      6133      2045  TIP3      OH2            -6.7413405324        2.5100951950       -4.0824799678  W2        2045            0.0000000000
      6134      2045  TIP3      H1             -7.4181805324        2.6414051950       -3.4185099678  W2        2045            0.0000000000
      6135      2045  TIP3      H2             -7.2268505324        2.3550451950       -4.8927099678  W2        2045            0.0000000000
      6136      2046  TIP3      OH2           -13.9909905324        6.0985751950      -13.2968299678  W2        2046            0.0000000000
      6137      2046  TIP3      H1            -14.5334805324        5.7189551950      -13.9880699678  W2        2046            0.0000000000
      6138      2046  TIP3      H2            -13.1575005324        6.2930451950      -13.7254199678  W2        2046            0.0000000000
      6139      2047  TIP3      OH2            -3.4538305324       18.1816351950        2.1942800322  W2        2047            0.0000000000
      6140      2047  TIP3      H1             -3.2539605324       18.6058251950        1.3598100322  W2        2047            0.0000000000
      6141      2047  TIP3      H2             -2.7984605324       18.5254551950        2.8013200322  W2        2047            0.0000000000
      6142      2048  TIP3      OH2           -15.8558505324       10.6557651950        1.8023300322  W2        2048            0.0000000000
      6143      2048  TIP3      H1            -15.1236105324       10.9103551950        2.3637800322  W2        2048            0.0000000000
      6144      2048  TIP3      H2            -16.6359805324       10.8603051950        2.3178700322  W2        2048            0.0000000000
      6145      2049  TIP3      OH2            -9.8265605324        6.0627651950       -5.4596999678  W2        2049            0.0000000000
      6146      2049  TIP3      H1             -9.2622205324        5.5164251950       -6.0067399678  W2        2049            0.0000000000
      6147      2049  TIP3      H2             -9.9742205324        5.5409551950       -4.6709399678  W2        2049            0.0000000000
      6148      2050  TIP3      OH2           -14.8245905324        2.1993751950       -9.0412199678  W2        2050            0.0000000000
      6149      2050  TIP3      H1            -15.1416405324        1.2969051950       -9.0766799678  W2        2050            0.0000000000
      6150      2050  TIP3      H2            -14.0431805324        2.2011151950       -9.5940599678  W2        2050            0.0000000000
      6151      2051  TIP3      OH2           -11.1999705324        4.4513751950       -3.0456599678  W2        2051            0.0000000000
      6152      2051  TIP3      H1            -12.0354405324        4.9053251950       -2.9354199678  W2        2051            0.0000000000
      6153      2051  TIP3      H2            -10.6759105324        4.7272251950       -2.2936699678  W2        2051            0.0000000000
      6154      2052  TIP3      OH2           -10.6557105324       10.6641451950      -11.3610199678  W2        2052            0.0000000000
      6155      2052  TIP3      H1            -11.4006105324       10.1566751950      -11.6832299678  W2        2052            0.0000000000
      6156      2052  TIP3      H2            -10.7899905324       10.7129451950      -10.4145399678  W2        2052            0.0000000000
      6157      2053  TIP3      OH2            -3.5058205324        9.7969651950       -2.5742599678  W2        2053            0.0000000000
      6158      2053  TIP3      H1             -2.8639405324       10.2535951950       -3.1180399678  W2        2053            0.0000000000
      6159      2053  TIP3      H2             -4.3361305324        9.9102051950       -3.0368499678  W2        2053            0.0000000000
      6160      2054  TIP3      OH2            -6.7580305324        3.4781351950      -13.1617599678  W2        2054            0.0000000000
      6161      2054  TIP3      H1             -7.6966105324        3.5896951950      -13.3128799678  W2        2054            0.0000000000
      6162      2054  TIP3      H2             -6.4608205324        4.3348251950      -12.8551899678  W2        2054            0.0000000000
      6163      2055  TIP3      OH2            -9.1365005324       10.8484751950       -0.1241099678  W2        2055            0.0000000000
      6164      2055  TIP3      H1             -9.4818905324       10.4667151950        0.6828500322  W2        2055            0.0000000000
      6165      2055  TIP3      H2             -9.3364905324       11.7818351950       -0.0528199678  W2        2055            0.0000000000
      6166      2056  TIP3      OH2            -6.0396805324        5.3454051950      -11.5010199678  W2        2056            0.0000000000
      6167      2056  TIP3      H1             -5.1477805324        5.2079051950      -11.1818999678  W2        2056            0.0000000000
      6168      2056  TIP3      H2             -5.9833205324        6.1360151950      -12.0376699678  W2        2056            0.0000000000
      6169      2057  TIP3      OH2           -15.5308805324        9.9591451950       -5.5912299678  W2        2057            0.0000000000
      6170      2057  TIP3      H1            -14.7861605324        9.9567151950       -6.1925799678  W2        2057            0.0000000000
      6171      2057  TIP3      H2            -15.4532205324        9.1355251950       -5.1097199678  W2        2057            0.0000000000
      6172      2058  TIP3      OH2            -8.5303005324       12.1225751950      -12.3355599678  W2        2058            0.0000000000
      6173      2058  TIP3      H1             -8.8254605324       12.9493651950      -11.9540799678  W2        2058            0.0000000000
      6174      2058  TIP3      H2             -9.2333005324       11.5032651950      -12.1394199678  W2        2058            0.0000000000
      6175      2059  TIP3      OH2           -18.5229105324        8.4198351950       -0.2763799678  W2        2059            0.0000000000
      6176      2059  TIP3      H1            -18.3000505324        8.0017951950        0.5553700322  W2        2059            0.0000000000
      6177      2059  TIP3      H2            -19.1249005324        7.8073351950       -0.6990999678  W2        2059            0.0000000000
      6178      2060  TIP3      OH2           -11.5064205324        7.9368251950        1.9365900322  W2        2060            0.0000000000
      6179      2060  TIP3      H1            -11.8023405324        7.7711251950        1.0415000322  W2        2060            0.0000000000
      6180      2060  TIP3      H2            -10.5749005324        7.7168551950        1.9259800322  W2        2060            0.0000000000
      6181      2061  TIP3      OH2            -6.8861405324       13.3100251950       -0.1736099678  W2        2061            0.0000000000
      6182      2061  TIP3      H1             -7.7867105324       13.4932851950       -0.4412199678  W2        2061            0.0000000000
      6183      2061  TIP3      H2             -6.8520305324       13.5689551950        0.7472700322  W2        2061            0.0000000000
      6184      2062  TIP3      OH2            -1.1548105324        5.5548151950      -11.8063499678  W2        2062            0.0000000000
      6185      2062  TIP3      H1             -1.7091805324        5.1586151950      -12.4785999678  W2        2062            0.0000000000
      6186      2062  TIP3      H2             -1.0544505324        6.4653351950      -12.0840199678  W2        2062            0.0000000000
      6187      2063  TIP3      OH2            -1.1916105324       11.3549851950        1.0308000322  W2        2063            0.0000000000
      6188      2063  TIP3      H1             -2.0427605324       11.5933651950        0.6634400322  W2        2063            0.0000000000
      6189      2063  TIP3      H2             -0.6012705324       11.3383051950        0.2775100322  W2        2063            0.0000000000
      6190      2064  TIP3      OH2            -2.8596405324       14.3408551950      -11.3411399678  W2        2064            0.0000000000
      6191      2064  TIP3      H1             -3.2325305324       13.5152351950      -11.0320799678  W2        2064            0.0000000000
      6192      2064  TIP3      H2             -2.5822905324       14.1577951950      -12.2387999678  W2        2064            0.0000000000
      6193      2065  TIP3      OH2            -5.6992505324        9.1488051950       -4.3199499678  W2        2065            0.0000000000
      6194      2065  TIP3      H1             -6.6275605324        8.9169951950       -4.3470199678  W2        2065            0.0000000000
      6195      2065  TIP3      H2             -5.2481405324        8.3717851950       -4.6500699678  W2        2065            0.0000000000
      6196      2066  TIP3      OH2           -13.1559405324       13.4769651950       -8.1870799678  W2        2066            0.0000000000
      6197      2066  TIP3      H1            -12.6287205324       14.2504051950       -8.3871999678  W2        2066            0.0000000000
      6198      2066  TIP3      H2            -14.0360905324       13.7018851950       -8.4886799678  W2        2066            0.0000000000
      6199      2067  TIP3      OH2           -17.4011705324        8.3393751950      -13.5998399678  W2        2067            0.0000000000
      6200      2067  TIP3      H1            -16.7851805324        8.9660951950      -13.2203599678  W2        2067            0.0000000000
      6201      2067  TIP3      H2            -18.2629105324        8.6553551950      -13.3281899678  W2        2067            0.0000000000
      6202      2068  TIP3      OH2           -11.7287105324       11.1399551950       -8.6106499678  W2        2068            0.0000000000
      6203      2068  TIP3      H1            -11.9697105324       12.0653951950       -8.5691199678  W2        2068            0.0000000000
      6204      2068  TIP3      H2            -12.4693505324       10.6810851950       -8.2142599678  W2        2068            0.0000000000
      6205      2069  TIP3      OH2           -11.2140505324       15.2893151950       -2.2955399678  W2        2069            0.0000000000
      6206      2069  TIP3      H1            -10.8515805324       16.1438751950       -2.5290999678  W2        2069            0.0000000000
      6207      2069  TIP3      H2            -10.6825305324       14.9974751950       -1.5549099678  W2        2069            0.0000000000
      6208      2070  TIP3      OH2           -13.0456305324       16.1617151950       -9.0654299678  W2        2070            0.0000000000
      6209      2070  TIP3      H1            -13.9955805324       16.2674551950       -9.0140999678  W2        2070            0.0000000000
      6210      2070  TIP3      H2            -12.6938205324       16.9824551950       -8.7206799678  W2        2070            0.0000000000
      6211      2071  TIP3      OH2            -7.6699705324       11.3883851950       -2.5949799678  W2        2071            0.0000000000
      6212      2071  TIP3      H1             -8.0958405324       11.1605551950       -1.7685799678  W2        2071            0.0000000000
      6213      2071  TIP3      H2             -7.0893905324       10.6495651950       -2.7774499678  W2        2071            0.0000000000
      6214      2072  TIP3      OH2            -5.4670805324       12.3174351950      -13.5210799678  W2        2072            0.0000000000
      6215      2072  TIP3      H1             -5.1137705324       11.9374151950      -12.7167299678  W2        2072            0.0000000000
      6216      2072  TIP3      H2             -6.4157305324       12.2239151950      -13.4341499678  W2        2072            0.0000000000
      6217      2073  TIP3      OH2            -5.0115505324       15.9403351950       -0.1254999678  W2        2073            0.0000000000
      6218      2073  TIP3      H1             -5.6132305324       15.3846251950       -0.6208699678  W2        2073            0.0000000000
      6219      2073  TIP3      H2             -4.7301805324       16.6073151950       -0.7517599678  W2        2073            0.0000000000
      6220      2074  TIP3      OH2            -0.9636405324       16.7966851950      -13.3200599678  W2        2074            0.0000000000
      6221      2074  TIP3      H1             -0.2198505324       17.3827351950      -13.4598999678  W2        2074            0.0000000000
      6222      2074  TIP3      H2             -1.6578305324       17.3652651950      -12.9868199678  W2        2074            0.0000000000
      6223      2075  TIP3      OH2           -16.8889605324        3.1731051950       -0.7182399678  W2        2075            0.0000000000
      6224      2075  TIP3      H1            -17.7817305324        3.5116451950       -0.7858399678  W2        2075            0.0000000000
      6225      2075  TIP3      H2            -16.9876805324        2.3177151950       -0.3001599678  W2        2075            0.0000000000
      6226      2076  TIP3      OH2            -4.6011505324       10.9896351950      -11.2942899678  W2        2076            0.0000000000
      6227      2076  TIP3      H1             -4.8783905324       10.2615651950      -10.7381799678  W2        2076            0.0000000000
      6228      2076  TIP3      H2             -3.6738505324       11.1088351950      -11.0890299678  W2        2076            0.0000000000
      6229      2077  TIP3      OH2           -17.2377605324       14.9775451950       -2.2832999678  W2        2077            0.0000000000
      6230      2077  TIP3      H1            -17.0207305324       14.0457851950       -2.3143299678  W2        2077            0.0000000000
      6231      2077  TIP3      H2            -16.9914105324       15.2520451950       -1.4000199678  W2        2077            0.0000000000
      6232      2078  TIP3      OH2           -11.3763005324       13.4290451950      -15.0740799678  W2        2078            0.0000000000
      6233      2078  TIP3      H1            -11.1373205324       12.6808551950      -15.6211899678  W2        2078            0.0000000000
      6234      2078  TIP3      H2            -11.6451705324       13.0412151950      -14.2412999678  W2        2078            0.0000000000
      6235      2079  TIP3      OH2           -12.4392405324       12.9994251950      -12.6178199678  W2        2079            0.0000000000
      6236      2079  TIP3      H1            -12.2924405324       12.4794051950      -11.8277299678  W2        2079            0.0000000000
      6237      2079  TIP3      H2            -12.4420705324       13.9061851950      -12.3112299678  W2        2079            0.0000000000
      6238      2080  TIP3      OH2           -15.9861305324       10.2517551950      -12.1072799678  W2        2080            0.0000000000
      6239      2080  TIP3      H1            -16.6722005324       10.6040051950      -11.5403099678  W2        2080            0.0000000000
      6240      2080  TIP3      H2            -15.4633405324       11.0147151950      -12.3538499678  W2        2080            0.0000000000
      6241      2081  TIP3      OH2            -8.1546205324        2.9141351950       -1.8283799678  W2        2081            0.0000000000
      6242      2081  TIP3      H1             -7.4558305324        2.9880051950       -1.1784099678  W2        2081            0.0000000000
      6243      2081  TIP3      H2             -8.5354805324        2.0496351950       -1.6740899678  W2        2081            0.0000000000
      6244      2082  TIP3      OH2            -7.3701305324        2.5663051950      -10.7311499678  W2        2082            0.0000000000
      6245      2082  TIP3      H1             -7.1503005324        3.0378451950      -11.5346099678  W2        2082            0.0000000000
      6246      2082  TIP3      H2             -6.8117305324        2.9605651950      -10.0610899678  W2        2082            0.0000000000
      6247      2083  TIP3      OH2            -9.7015205324       14.6967851950      -11.8683999678  W2        2083            0.0000000000
      6248      2083  TIP3      H1            -10.5179105324       15.1937551950      -11.8159699678  W2        2083            0.0000000000
      6249      2083  TIP3      H2             -9.1718905324       15.1721351950      -12.5085199678  W2        2083            0.0000000000
      6250      2084  TIP3      OH2           -10.1701405324        4.2941851950       -9.8963099678  W2        2084            0.0000000000
      6251      2084  TIP3      H1             -9.3578805324        4.7985051950       -9.8501399678  W2        2084            0.0000000000
      6252      2084  TIP3      H2            -10.4148405324        4.1491551950       -8.9823499678  W2        2084            0.0000000000
      6253      2085  TIP3      OH2            -9.6345005324        5.2804551950       -0.7116499678  W2        2085            0.0000000000
      6254      2085  TIP3      H1             -9.5154705324        5.8539951950        0.0453900322  W2        2085            0.0000000000
      6255      2085  TIP3      H2             -8.9790405324        4.5923951950       -0.5968699678  W2        2085            0.0000000000
      6256      2086  TIP3      OH2            -9.2864705324        1.3754851950       -8.9581999678  W2        2086            0.0000000000
      6257      2086  TIP3      H1             -9.6331205324        1.9925451950       -8.3137699678  W2        2086            0.0000000000
      6258      2086  TIP3      H2             -8.6277805324        1.8760551950       -9.4396499678  W2        2086            0.0000000000
      6259      2087  TIP3      OH2           -12.3632105324       15.7405051950      -11.8867099678  W2        2087            0.0000000000
      6260      2087  TIP3      H1            -12.2023405324       16.5402551950      -12.3874499678  W2        2087            0.0000000000
      6261      2087  TIP3      H2            -12.5604305324       16.0471051950      -11.0016499678  W2        2087            0.0000000000
      6262      2088  TIP3      OH2           -13.6287705324        2.4384251950      -12.2709499678  W2        2088            0.0000000000
      6263      2088  TIP3      H1            -13.7122905324        3.3267351950      -11.9243099678  W2        2088            0.0000000000
      6264      2088  TIP3      H2            -12.7387405324        2.1730951950      -12.0392699678  W2        2088            0.0000000000
      6265      2089  TIP3      OH2            -3.4299205324        3.1874851950        0.1233200322  W2        2089            0.0000000000
      6266      2089  TIP3      H1             -4.3463405324        3.4496551950        0.0356900322  W2        2089            0.0000000000
      6267      2089  TIP3      H2             -3.0944205324        3.1843851950       -0.7731499678  W2        2089            0.0000000000
      6268      2090  TIP3      OH2            -4.8278205324        6.9375851950       -5.7809499678  W2        2090            0.0000000000
      6269      2090  TIP3      H1             -5.6253805324        6.5226051950       -6.1094499678  W2        2090            0.0000000000
      6270      2090  TIP3      H2             -4.3827105324        6.2469551950       -5.2898999678  W2        2090            0.0000000000
      6271      2091  TIP3      OH2           -15.3702405324       12.8656451950      -13.2104999678  W2        2091            0.0000000000
      6272      2091  TIP3      H1            -14.7780905324       13.5651251950      -12.9342599678  W2        2091            0.0000000000
      6273      2091  TIP3      H2            -14.9109405324       12.4325951950      -13.9300399678  W2        2091            0.0000000000
      6274      2092  TIP3      OH2           -17.0543205324        5.5299451950      -14.0945599678  W2        2092            0.0000000000
      6275      2092  TIP3      H1            -17.0990605324        6.4692551950      -13.9158599678  W2        2092            0.0000000000
      6276      2092  TIP3      H2            -17.9420005324        5.2944351950      -14.3643499678  W2        2092            0.0000000000
      6277      2093  TIP3      OH2            -3.7413605324       16.1938351950       -4.1585999678  W2        2093            0.0000000000
      6278      2093  TIP3      H1             -3.8969305324       16.8722751950       -4.8156699678  W2        2093            0.0000000000
      6279      2093  TIP3      H2             -2.8087205324       16.2657651950       -3.9555399678  W2        2093            0.0000000000
      6280      2094  TIP3      OH2           -16.2461205324        0.3116051950       -5.4214599678  W2        2094            0.0000000000
      6281      2094  TIP3      H1            -16.4751405324        0.3708551950       -6.3489599678  W2        2094            0.0000000000
      6282      2094  TIP3      H2            -16.6887805324       -0.4798448050       -5.1150499678  W2        2094            0.0000000000
      6283      2095  TIP3      OH2           -17.3157905324       14.2523151950       -9.2608799678  W2        2095            0.0000000000
      6284      2095  TIP3      H1            -18.1479305324       14.7245851950       -9.2337399678  W2        2095            0.0000000000
      6285      2095  TIP3      H2            -16.7699605324       14.7620751950       -9.8595699678  W2        2095            0.0000000000
      6286      2096  TIP3      OH2           -18.0274205324       16.8646851950        2.0689200322  W2        2096            0.0000000000
      6287      2096  TIP3      H1            -17.4872005324       16.6480851950        2.8288400322  W2        2096            0.0000000000
      6288      2096  TIP3      H2            -18.5086205324       16.0592851950        1.8791700322  W2        2096            0.0000000000
      6289      2097  TIP3      OH2           -13.4300805324       15.7841251950        3.6893400322  W2        2097            0.0000000000
      6290      2097  TIP3      H1            -12.6623605324       15.3252051950        4.0302600322  W2        2097            0.0000000000
      6291      2097  TIP3      H2            -13.4514605324       15.5581051950        2.7594600322  W2        2097            0.0000000000
      6292      2098  TIP3      OH2            -9.3381205324       15.2921851950      -14.9354799678  W2        2098            0.0000000000
      6293      2098  TIP3      H1             -9.9820205324       14.6610451950      -14.6141099678  W2        2098            0.0000000000
      6294      2098  TIP3      H2             -8.5762905324       14.7609851950      -15.1671299678  W2        2098            0.0000000000
      6295      2099  TIP3      OH2            -6.8532105324       14.1642351950        2.4184900322  W2        2099            0.0000000000
      6296      2099  TIP3      H1             -7.2042605324       13.3075351950        2.6615300322  W2        2099            0.0000000000
      6297      2099  TIP3      H2             -6.1268905324       14.3069051950        3.0253900322  W2        2099            0.0000000000
      6298      2100  TIP3      OH2            -4.7338305324       15.1091751950      -14.7016799678  W2        2100            0.0000000000
      6299      2100  TIP3      H1             -4.4507905324       14.3146951950      -14.2489899678  W2        2100            0.0000000000
      6300      2100  TIP3      H2             -3.9940405324       15.3422751950      -15.2625699678  W2        2100            0.0000000000
      6301      2101  TIP3      OH2           -18.1204705324       10.6750951950        3.0233500322  W2        2101            0.0000000000
      6302      2101  TIP3      H1            -17.9764205324        9.7731651950        2.7370200322  W2        2101            0.0000000000
      6303      2101  TIP3      H2            -18.8927305324       10.9613051950        2.5355800322  W2        2101            0.0000000000
      6304      2102  TIP3      OH2           -13.7791005324       11.0186651950      -14.8441899678  W2        2102            0.0000000000
      6305      2102  TIP3      H1            -13.7146905324       10.2246251950      -14.3135499678  W2        2102            0.0000000000
      6306      2102  TIP3      H2            -13.1261805324       10.8999451950      -15.5339899678  W2        2102            0.0000000000
      6307      2103  TIP3      OH2           -11.4648605324       10.6449051950        2.4559900322  W2        2103            0.0000000000
      6308      2103  TIP3      H1            -11.7934805324       10.9157151950        1.5987300322  W2        2103            0.0000000000
      6309      2103  TIP3      H2            -11.3130405324        9.7038851950        2.3684900322  W2        2103            0.0000000000
      6310      2104  TIP3      OH2            -8.4267605324       12.0658351950      -15.1083899678  W2        2104            0.0000000000
      6311      2104  TIP3      H1             -8.6953505324       12.2460451950      -14.2074999678  W2        2104            0.0000000000
      6312      2104  TIP3      H2             -8.6332005324       11.1404551950      -15.2398099678  W2        2104            0.0000000000
      6313      2105  TIP3      OH2            -5.7303405324       10.5606351950       -0.1607799678  W2        2105            0.0000000000
      6314      2105  TIP3      H1             -4.9848605324       11.1490051950       -0.2803799678  W2        2105            0.0000000000
      6315      2105  TIP3      H2             -6.4876605324       11.1426051950       -0.0974699678  W2        2105            0.0000000000
      6316      2106  TIP3      OH2           -17.2878205324        7.8754251950        2.4432800322  W2        2106            0.0000000000
      6317      2106  TIP3      H1            -16.8797005324        7.0180851950        2.3223400322  W2        2106            0.0000000000
      6318      2106  TIP3      H2            -17.5480605324        7.8895551950        3.3643100322  W2        2106            0.0000000000
      6319      2107  TIP3      OH2           -12.6297205324        8.9912851950      -12.5383899678  W2        2107            0.0000000000
      6320      2107  TIP3      H1            -13.0895205324        8.5071151950      -11.8525399678  W2        2107            0.0000000000
      6321      2107  TIP3      H2            -12.3748505324        8.3228251950      -13.1743399678  W2        2107            0.0000000000
      6322      2108  TIP3      OH2           -13.3407905324        6.8839951950       -0.1824299678  W2        2108            0.0000000000
      6323      2108  TIP3      H1            -13.9591805324        7.5586551950        0.0980400322  W2        2108            0.0000000000
      6324      2108  TIP3      H2            -12.9966705324        7.2053851950       -1.0158099678  W2        2108            0.0000000000
      6325      2109  TIP3      OH2           -11.5586805324        7.2344651950      -14.2760699678  W2        2109            0.0000000000
      6326      2109  TIP3      H1            -11.7391805324        7.0795851950      -15.2032399678  W2        2109            0.0000000000
      6327      2109  TIP3      H2            -10.6086305324        7.3423351950      -14.2312799678  W2        2109            0.0000000000
      6328      2110  TIP3      OH2            -8.3209705324        9.3555251950        3.0950500322  W2        2110            0.0000000000
      6329      2110  TIP3      H1             -7.3678505324        9.4394351950        3.0676500322  W2        2110            0.0000000000
      6330      2110  TIP3      H2             -8.4815105324        8.6437051950        3.7145400322  W2        2110            0.0000000000
      6331      2111  TIP3      OH2            -2.1688505324        9.5888851950      -14.8302599678  W2        2111            0.0000000000
      6332      2111  TIP3      H1             -2.4423705324        9.1644351950      -15.6434299678  W2        2111            0.0000000000
      6333      2111  TIP3      H2             -2.1294405324       10.5203351950      -15.0472199678  W2        2111            0.0000000000
      6334      2112  TIP3      OH2           -13.0014205324        4.2390751950        0.8998800322  W2        2112            0.0000000000
      6335      2112  TIP3      H1            -12.8513305324        3.5102051950        0.2978500322  W2        2112            0.0000000000
      6336      2112  TIP3      H2            -12.9991805324        5.0162451950        0.3411000322  W2        2112            0.0000000000
      6337      2113  TIP3      OH2           -12.5888505324        2.6086551950       -1.6073799678  W2        2113            0.0000000000
      6338      2113  TIP3      H1            -12.0531005324        3.0603251950       -2.2594499678  W2        2113            0.0000000000
      6339      2113  TIP3      H2            -13.4408905324        2.5006351950       -2.0299699678  W2        2113            0.0000000000
      6340      2114  TIP3      OH2           -11.0070105324        8.0482751950       -1.3678599678  W2        2114            0.0000000000
      6341      2114  TIP3      H1            -10.2565305324        7.8920251950       -1.9410799678  W2        2114            0.0000000000
      6342      2114  TIP3      H2            -11.3461805324        8.8999351950       -1.6433099678  W2        2114            0.0000000000
      6343      2115  TIP3      OH2            -6.5913905324        5.8634551950        3.6606700322  W2        2115            0.0000000000
      6344      2115  TIP3      H1             -6.3992605324        4.9323951950        3.5491200322  W2        2115            0.0000000000
      6345      2115  TIP3      H2             -5.7337605324        6.2884051950        3.6502100322  W2        2115            0.0000000000
      6346      2116  TIP3      OH2            -5.2746705324        8.6519751950        1.7379400322  W2        2116            0.0000000000
      6347      2116  TIP3      H1             -5.5561705324        9.3614351950        1.1603200322  W2        2116            0.0000000000
      6348      2116  TIP3      H2             -4.3322405324        8.5792751950        1.5870600322  W2        2116            0.0000000000
      6349      2117  TIP3      OH2           -14.5227905324        5.4374251950        2.8114400322  W2        2117            0.0000000000
      6350      2117  TIP3      H1            -15.2898905324        4.9049051950        2.6012000322  W2        2117            0.0000000000
      6351      2117  TIP3      H2            -13.8438905324        5.1274651950        2.2120700322  W2        2117            0.0000000000
      6352      2118  TIP3      OH2           -11.7833005324        0.0652251950       -1.1760199678  W2        2118            0.0000000000
      6353      2118  TIP3      H1            -11.8813405324        1.0115451950       -1.2813999678  W2        2118            0.0000000000
      6354      2118  TIP3      H2            -12.5256805324       -0.3073948050       -1.6516699678  W2        2118            0.0000000000
      6355      2119  TIP3      OH2           -10.5192505324        4.3867651950        2.3878200322  W2        2119            0.0000000000
      6356      2119  TIP3      H1            -10.7547105324        4.1674351950        3.2893100322  W2        2119            0.0000000000
      6357      2119  TIP3      H2            -11.3025605324        4.1798851950        1.8780700322  W2        2119            0.0000000000
      6358      2120  TIP3      OH2            -7.8035905324        3.5141151950        1.4631700322  W2        2120            0.0000000000
      6359      2120  TIP3      H1             -8.7510505324        3.5460851950        1.5955000322  W2        2120            0.0000000000
      6360      2120  TIP3      H2             -7.4909205324        2.8888251950        2.1169900322  W2        2120            0.0000000000
      6361      2121  TIP3      OH2            -6.1694405324        2.1482251950        3.4683600322  W2        2121            0.0000000000
      6362      2121  TIP3      H1             -6.2662605324        1.1959551950        3.4625500322  W2        2121            0.0000000000
      6363      2121  TIP3      H2             -6.4911305324        2.4169051950        4.3289100322  W2        2121            0.0000000000
      6364      2122  TIP3      OH2           -16.3425105324        3.3578051950        2.5159100322  W2        2122            0.0000000000
      6365      2122  TIP3      H1            -16.1307705324        2.6514151950        1.9056600322  W2        2122            0.0000000000
      6366      2122  TIP3      H2            -16.4537605324        2.9204051950        3.3600300322  W2        2122            0.0000000000
      6367      2123  TIP3      OH2           -11.5614905324       -0.6410348050        1.4952600322  W2        2123            0.0000000000
      6368      2123  TIP3      H1            -10.8496505324       -1.2808148050        1.4811700322  W2        2123            0.0000000000
      6369      2123  TIP3      H2            -11.6624505324       -0.3742048050        0.5815700322  W2        2123            0.0000000000
      6370      2124  TIP3      OH2           -11.2077405324        1.0418051950        3.5488900322  W2        2124            0.0000000000
      6371      2124  TIP3      H1            -11.3395205324        0.5661851950        2.7287400322  W2        2124            0.0000000000
      6372      2124  TIP3      H2            -11.8070005324        1.7861651950        3.4936000322  W2        2124            0.0000000000
      6373      2125  TIP3      OH2           -11.6615105324       17.9248351950      -13.2747099678  W2        2125            0.0000000000
      6374      2125  TIP3      H1            -10.7284405324       18.0827051950      -13.1308699678  W2        2125            0.0000000000
      6375      2125  TIP3      H2            -11.9256305324       18.6001351950      -13.8995599678  W2        2125            0.0000000000
      6376      2126  TIP3      OH2           -18.0930205324       12.5612151950      -13.7918999678  W2        2126            0.0000000000
      6377      2126  TIP3      H1            -17.1791005324       12.6401051950      -13.5185099678  W2        2126            0.0000000000
      6378      2126  TIP3      H2            -18.0857105324       11.8741751950      -14.4583399678  W2        2126            0.0000000000
      6379      2127  TIP3      OH2           -19.4439605324       17.9540651950       -8.7145099678  W2        2127            0.0000000000
      6380      2127  TIP3      H1            -20.0912505324       17.4922351950       -9.2473899678  W2        2127            0.0000000000
      6381      2127  TIP3      H2            -19.0895005324       17.2823951950       -8.1318899678  W2        2127            0.0000000000
      6382      2128  TIP3      OH2           -18.5740405324       16.0347651950       -6.9098899678  W2        2128            0.0000000000
      6383      2128  TIP3      H1            -18.9083605324       15.1544951950       -6.7378699678  W2        2128            0.0000000000
      6384      2128  TIP3      H2            -18.3518005324       16.3802651950       -6.0453299678  W2        2128            0.0000000000
      6385      2129  TIP3      OH2            -1.0255605324       16.8444051950       -3.9294099678  W2        2129            0.0000000000
      6386      2129  TIP3      H1             -1.0468905324       17.0292451950       -2.9904699678  W2        2129            0.0000000000
      6387      2129  TIP3      H2             -0.3349405324       17.4128051950       -4.2702699678  W2        2129            0.0000000000
      6388      2130  TIP3      OH2            -1.4622705324       16.4115151950       -1.0074999678  W2        2130            0.0000000000
      6389      2130  TIP3      H1             -1.9494005324       15.6759251950       -1.3787599678  W2        2130            0.0000000000
      6390      2130  TIP3      H2             -0.9130005324       16.0179051950       -0.3295599678  W2        2130            0.0000000000
      6391      2131  TIP3      OH2            -3.0115405324       12.2013251950        3.6305300322  W2        2131            0.0000000000
      6392      2131  TIP3      H1             -3.8774305324       12.0962951950        4.0247600322  W2        2131            0.0000000000
      6393      2131  TIP3      H2             -2.6349505324       12.9596551950        4.0770000322  W2        2131            0.0000000000
      6394      2132  TIP3      OH2            -1.7105705324       10.4576951950      -10.8552199678  W2        2132            0.0000000000
      6395      2132  TIP3      H1             -0.8604305324       10.8787851950      -10.7280599678  W2        2132            0.0000000000
      6396      2132  TIP3      H2             -1.7050605324        9.7177051950      -10.2480799678  W2        2132            0.0000000000
      6397      2133  TIP3      OH2            -1.3160105324        8.5114351950       -9.0316499678  W2        2133            0.0000000000
      6398      2133  TIP3      H1             -2.0425505324        8.0316951950       -8.6338899678  W2        2133            0.0000000000
      6399      2133  TIP3      H2             -0.7346805324        8.7169051950       -8.2994899678  W2        2133            0.0000000000
      6400      2134  TIP3      OH2            -1.5568905324       11.2961851950       -4.0838899678  W2        2134            0.0000000000
      6401      2134  TIP3      H1             -0.7234705324       10.9181851950       -4.3645299678  W2        2134            0.0000000000
      6402      2134  TIP3      H2             -1.4448605324       12.2393051950       -4.2029799678  W2        2134            0.0000000000
      6403      2135  TIP3      OH2            -3.0706605324       14.1739351950       -1.7770499678  W2        2135            0.0000000000
      6404      2135  TIP3      H1             -3.7181305324       14.4990851950       -1.1515299678  W2        2135            0.0000000000
      6405      2135  TIP3      H2             -3.5882605324       13.7337051950       -2.4512199678  W2        2135            0.0000000000
      6406      2136  TIP3      OH2            -1.0477005324        8.4122851950      -12.6405199678  W2        2136            0.0000000000
      6407      2136  TIP3      H1             -1.5695905324        8.7686951950      -13.3594299678  W2        2136            0.0000000000
      6408      2136  TIP3      H2             -1.0807805324        9.0870651950      -11.9624299678  W2        2136            0.0000000000
      6409      2137  TIP3      OH2            -2.6988005324        5.6518451950      -14.0898099678  W2        2137            0.0000000000
      6410      2137  TIP3      H1             -2.6023605324        6.3185451950      -14.7698399678  W2        2137            0.0000000000
      6411      2137  TIP3      H2             -2.8388405324        4.8364751950      -14.5712599678  W2        2137            0.0000000000
      6412      2138  TIP3      OH2            -3.5293305324        7.0320851950       -8.4687799678  W2        2138            0.0000000000
      6413      2138  TIP3      H1             -3.6794505324        6.0869451950       -8.4889999678  W2        2138            0.0000000000
      6414      2138  TIP3      H2             -3.8828805324        7.3132251950       -7.6248699678  W2        2138            0.0000000000
      6415      2139  TIP3      OH2           -18.4940905324        9.1103051950       -4.4583999678  W2        2139            0.0000000000
      6416      2139  TIP3      H1            -18.3098005324        9.0284751950       -5.3941099678  W2        2139            0.0000000000
      6417      2139  TIP3      H2            -17.6448005324        8.9860051950       -4.0347599678  W2        2139            0.0000000000
      6418      2140  TIP3      OH2            -2.6730405324        9.0024151950        1.1700500322  W2        2140            0.0000000000
      6419      2140  TIP3      H1             -2.0903105324        8.2676451950        1.3617700322  W2        2140            0.0000000000
      6420      2140  TIP3      H2             -2.1091105324        9.7744451950        1.2166300322  W2        2140            0.0000000000
      6421      2141  TIP3      OH2            -1.1763305324        6.9049951950        1.8545900322  W2        2141            0.0000000000
      6422      2141  TIP3      H1             -2.0396605324        6.5262051950        1.6890600322  W2        2141            0.0000000000
      6423      2141  TIP3      H2             -0.5719605324        6.1664751950        1.7801700322  W2        2141            0.0000000000
      6424      2142  TIP3      OH2            -3.4514205324        3.0598251950      -14.9722599678  W2        2142            0.0000000000
      6425      2142  TIP3      H1             -2.8408405324        2.6885051950      -14.3354399678  W2        2142            0.0000000000
      6426      2142  TIP3      H2             -4.2882705324        2.6385151950      -14.7762599678  W2        2142            0.0000000000
      6427      2143  TIP3      OH2            -3.8188505324        4.6146651950      -10.0062699678  W2        2143            0.0000000000
      6428      2143  TIP3      H1             -3.5391405324        3.7077051950       -9.8820999678  W2        2143            0.0000000000
      6429      2143  TIP3      H2             -3.0596805324        5.0488151950      -10.3953499678  W2        2143            0.0000000000
      6430      2144  TIP3      OH2            -3.2070205324        5.1964051950       -4.5703799678  W2        2144            0.0000000000
      6431      2144  TIP3      H1             -2.2742205324        5.4083951950       -4.6047799678  W2        2144            0.0000000000
      6432      2144  TIP3      H2             -3.4422705324        5.2976151950       -3.6480799678  W2        2144            0.0000000000
      6433      2145  TIP3      OH2            -3.1778305324        5.9329351950       -1.7944399678  W2        2145            0.0000000000
      6434      2145  TIP3      H1             -4.0207005324        6.2009751950       -1.4284599678  W2        2145            0.0000000000
      6435      2145  TIP3      H2             -2.7354005324        6.7551251950       -2.0053299678  W2        2145            0.0000000000
      6436      2146  TIP3      OH2           -18.8966105324        4.3808051950        1.6824800322  W2        2146            0.0000000000
      6437      2146  TIP3      H1            -17.9771205324        4.2586351950        1.9187900322  W2        2146            0.0000000000
      6438      2146  TIP3      H2            -19.3461605324        3.6307751950        2.0718300322  W2        2146            0.0000000000
      6439      2147  TIP3      OH2            -0.8946705324       -0.0870448050        3.5590600322  W2        2147            0.0000000000
      6440      2147  TIP3      H1             -0.5449705324       -0.7406948050        2.9535300322  W2        2147            0.0000000000
      6441      2147  TIP3      H2             -0.7477205324        0.7503651950        3.1193200322  W2        2147            0.0000000000
      6442      2148  TIP3      OH2            -3.2053705324        1.8775951950       -9.9580699678  W2        2148            0.0000000000
      6443      2148  TIP3      H1             -3.0228705324        1.4287451950       -9.1325699678  W2        2148            0.0000000000
      6444      2148  TIP3      H2             -3.8050805324        1.2930351950      -10.4216099678  W2        2148            0.0000000000
      6445      2149  TIP3      OH2           -17.6753605324        2.6929651950       -5.4262299678  W2        2149            0.0000000000
      6446      2149  TIP3      H1            -17.2302005324        1.9012151950       -5.1242599678  W2        2149            0.0000000000
      6447      2149  TIP3      H2            -17.2090605324        3.4094851950       -4.9956699678  W2        2149            0.0000000000
      6448      2150  TIP3      OH2           -19.3713305324        5.6922651950       -4.3572099678  W2        2150            0.0000000000
      6449      2150  TIP3      H1            -18.8793505324        5.4713151950       -5.1480099678  W2        2150            0.0000000000
      6450      2150  TIP3      H2            -19.0092405324        6.5326051950       -4.0762599678  W2        2150            0.0000000000
      6451      2151  TIP3      OH2            -1.3749505324        2.0224151950        1.9081900322  W2        2151            0.0000000000
      6452      2151  TIP3      H1             -2.2923805324        2.2931251950        1.8725400322  W2        2151            0.0000000000
      6453      2151  TIP3      H2             -1.2520105324        1.4872551950        1.1241600322  W2        2151            0.0000000000
      6454      2152  TIP3      OH2            -1.3387505324        1.9454051950      -13.4300399678  W2        2152            0.0000000000
      6455      2152  TIP3      H1             -0.9264905324        1.2239751950      -13.9052399678  W2        2152            0.0000000000
      6456      2152  TIP3      H2             -0.6571005324        2.6148651950      -13.3716099678  W2        2152            0.0000000000
      6457      2153  TIP3      OH2           -19.0576805324        1.9501751950      -10.3029699678  W2        2153            0.0000000000
      6458      2153  TIP3      H1            -19.9828405324        2.1588351950      -10.4324199678  W2        2153            0.0000000000
      6459      2153  TIP3      H2            -18.6036905324        2.4342551950      -10.9927399678  W2        2153            0.0000000000
      6460      2154  TIP3      OH2            -4.2869605324       16.9343451950       -8.3572299678  W2        2154            0.0000000000
      6461      2154  TIP3      H1             -3.6346705324       16.5865551950       -8.9653199678  W2        2154            0.0000000000
      6462      2154  TIP3      H2             -3.7765805324       17.4226651950       -7.7112599678  W2        2154            0.0000000000
      6463      2155  TIP3      OH2           -19.0941405324        0.6880751950       -1.9587199678  W2        2155            0.0000000000
      6464      2155  TIP3      H1            -19.7590905324        0.4421051950       -1.3156299678  W2        2155            0.0000000000
      6465      2155  TIP3      H2            -19.5370105324        1.3101151950       -2.5359199678  W2        2155            0.0000000000
      6466      2156  TIP3      OH2           -16.9022105324       13.8634851950        2.1858600322  W2        2156            0.0000000000
      6467      2156  TIP3      H1            -17.7229605324       14.0381351950        1.7253300322  W2        2156            0.0000000000
      6468      2156  TIP3      H2            -17.1544305324       13.7899551950        3.1063000322  W2        2156            0.0000000000
      6469      2157  TIP3      OH2           -13.9479205324       14.8376051950       -1.5557399678  W2        2157            0.0000000000
      6470      2157  TIP3      H1            -14.3728105324       15.6474551950       -1.8382799678  W2        2157            0.0000000000
      6471      2157  TIP3      H2            -13.0436405324       14.9230151950       -1.8577599678  W2        2157            0.0000000000
      6472      2158  TIP3      OH2            -9.6367805324       16.2366051950        1.4036300322  W2        2158            0.0000000000
      6473      2158  TIP3      H1             -9.4520305324       15.9032151950        2.2816600322  W2        2158            0.0000000000
      6474      2158  TIP3      H2             -8.7903305324       16.5464651950        1.0815500322  W2        2158            0.0000000000
      6475      2159  TIP3      OH2            -7.2917405324       17.5224951950        0.6477700322  W2        2159            0.0000000000
      6476      2159  TIP3      H1             -6.6148505324       16.8897251950        0.4076900322  W2        2159            0.0000000000
      6477      2159  TIP3      H2             -6.9698605324       17.9235451950        1.4551000322  W2        2159            0.0000000000
      6478      2160  TIP3      OH2            -2.3743605324        0.1120451950       -0.2727299678  W2        2160            0.0000000000
      6479      2160  TIP3      H1             -3.1870105324        0.4370751950       -0.6602599678  W2        2160            0.0000000000
      6480      2160  TIP3      H2             -2.1415105324       -0.6481048050       -0.8058199678  W2        2160            0.0000000000
      6481      2161  TIP3      OH2           -16.5462505324       18.0939951950       -1.5082099678  W2        2161            0.0000000000
      6482      2161  TIP3      H1            -17.2666105324       18.5340951950       -1.9594399678  W2        2161            0.0000000000
      6483      2161  TIP3      H2            -16.9118505324       17.8434651950       -0.6598099678  W2        2161            0.0000000000
      6484      2162  TIP3      OH2           -14.0789905324       17.6943851950       -2.4784899678  W2        2162            0.0000000000
      6485      2162  TIP3      H1            -14.9437705324       17.7662351950       -2.0744799678  W2        2162            0.0000000000
      6486      2162  TIP3      H2            -14.1340905324       18.2411151950       -3.2622399678  W2        2162            0.0000000000
      6487      2163  TIP3      OH2            -9.3684305324       17.5822751950       -3.3028899678  W2        2163            0.0000000000
      6488      2163  TIP3      H1             -9.8250305324       18.1112451950       -3.9570499678  W2        2163            0.0000000000
      6489      2163  TIP3      H2             -9.2056305324       18.1854151950       -2.5776599678  W2        2163            0.0000000000
      6490      2164  TIP3      OH2            -7.0408005324       16.4602351950       -2.3578599678  W2        2164            0.0000000000
      6491      2164  TIP3      H1             -7.9454305324       16.6252551950       -2.6236499678  W2        2164            0.0000000000
      6492      2164  TIP3      H2             -6.6119405324       17.3134551950       -2.4235199678  W2        2164            0.0000000000
      6493      2165  TIP3      OH2            -4.4366105324       18.0301451950       -2.0630799678  W2        2165            0.0000000000
      6494      2165  TIP3      H1             -4.6184105324       18.9460351950       -2.2735899678  W2        2165            0.0000000000
      6495      2165  TIP3      H2             -4.2598305324       17.6198551950       -2.9096199678  W2        2165            0.0000000000
      6496      2166  TIP3      OH2           -17.1314405324       16.7172451950       -4.5980299678  W2        2166            0.0000000000
      6497      2166  TIP3      H1            -17.1498405324       16.2917551950       -3.7407999678  W2        2166            0.0000000000
      6498      2166  TIP3      H2            -16.3266505324       16.3987451950       -5.0068099678  W2        2166            0.0000000000
      6499      2167  TIP3      OH2           -14.9901305324       15.4271151950       -5.9430399678  W2        2167            0.0000000000
      6500      2167  TIP3      H1            -15.2090605324       14.5108551950       -5.7734399678  W2        2167            0.0000000000
      6501      2167  TIP3      H2            -14.1659105324       15.5671551950       -5.4768999678  W2        2167            0.0000000000
      6502      2168  TIP3      OH2           -12.4528805324       15.8970451950       -5.0942399678  W2        2168            0.0000000000
      6503      2168  TIP3      H1            -12.2403105324       15.0089451950       -5.3811499678  W2        2168            0.0000000000
      6504      2168  TIP3      H2            -12.3883705324       15.8628151950       -4.1398399678  W2        2168            0.0000000000
      6505      2169  TIP3      OH2            -8.9445105324        1.5611051950       -5.9499099678  W2        2169            0.0000000000
      6506      2169  TIP3      H1             -9.6188305324        0.9316651950       -5.6943299678  W2        2169            0.0000000000
      6507      2169  TIP3      H2             -8.3805905324        1.0769951950       -6.5531199678  W2        2169            0.0000000000
      6508      2170  TIP3      OH2            -3.8017905324       -0.3314948050       -5.8371999678  W2        2170            0.0000000000
      6509      2170  TIP3      H1             -3.1980305324        0.2160451950       -6.3390999678  W2        2170            0.0000000000
      6510      2170  TIP3      H2             -4.6715905324       -0.0124548050       -6.0777899678  W2        2170            0.0000000000
      6511      2171  TIP3      OH2            -2.0747505324        0.8073751950       -7.5041099678  W2        2171            0.0000000000
      6512      2171  TIP3      H1             -1.4630005324        0.2929451950       -8.0307499678  W2        2171            0.0000000000
      6513      2171  TIP3      H2             -1.6924105324        1.6845851950       -7.4806699678  W2        2171            0.0000000000
      6514      2172  TIP3      OH2           -16.6177605324        0.1951351950       -8.1279199678  W2        2172            0.0000000000
      6515      2172  TIP3      H1            -17.3947805324       -0.0393748050       -8.6353299678  W2        2172            0.0000000000
      6516      2172  TIP3      H2            -16.0874005324       -0.6016548050       -8.1191199678  W2        2172            0.0000000000
      6517      2173  TIP3      OH2           -17.7814205324       -0.0070548050      -12.3243099678  W2        2173            0.0000000000
      6518      2173  TIP3      H1            -17.3423505324        0.6039951950      -12.9159599678  W2        2173            0.0000000000
      6519      2173  TIP3      H2            -18.4151805324        0.5313551950      -11.8503099678  W2        2173            0.0000000000
      6520      2174  TIP3      OH2           -12.0385005324        0.1218451950       -8.3146099678  W2        2174            0.0000000000
      6521      2174  TIP3      H1            -11.1641605324        0.5102751950       -8.3441799678  W2        2174            0.0000000000
      6522      2174  TIP3      H2            -12.1744205324       -0.0933748050       -7.3918899678  W2        2174            0.0000000000
      6523      2175  TIP3      OH2            -6.4816605324        0.1518251950       -6.6654399678  W2        2175            0.0000000000
      6524      2175  TIP3      H1             -6.4055005324        0.2469851950       -7.6148399678  W2        2175            0.0000000000
      6525      2175  TIP3      H2             -6.7567405324       -0.7558848050       -6.5365299678  W2        2175            0.0000000000
      6526      2176  TIP3      OH2            -5.1284005324        0.1776051950      -10.9729399678  W2        2176            0.0000000000
      6527      2176  TIP3      H1             -5.8312905324        0.7925251950      -11.1827999678  W2        2176            0.0000000000
      6528      2176  TIP3      H2             -5.5732605324       -0.6597248050      -10.8418499678  W2        2176            0.0000000000
      6529      2177  TIP3      OH2           -17.8804705324       15.9411651950      -11.4267999678  W2        2177            0.0000000000
      6530      2177  TIP3      H1            -18.5654805324       15.9030551950      -12.0942899678  W2        2177            0.0000000000
      6531      2177  TIP3      H2            -17.8767505324       16.8539251950      -11.1385899678  W2        2177            0.0000000000
      6532      2178  TIP3      OH2           -15.9205105324        1.9090951950      -13.8818999678  W2        2178            0.0000000000
      6533      2178  TIP3      H1            -15.4291705324        1.2793351950      -14.4093499678  W2        2178            0.0000000000
      6534      2178  TIP3      H2            -15.2968805324        2.2050351950      -13.2187799678  W2        2178            0.0000000000
      6535      2179  TIP3      OH2           -10.8945005324        2.2022451950      -11.4248499678  W2        2179            0.0000000000
      6536      2179  TIP3      H1            -10.7163705324        1.5555651950      -10.7419899678  W2        2179            0.0000000000
      6537      2179  TIP3      H2            -10.9478805324        3.0360151950      -10.9577399678  W2        2179            0.0000000000
      6538      2180  TIP3      OH2            -9.0161205324       17.1506551950      -13.0291799678  W2        2180            0.0000000000
      6539      2180  TIP3      H1             -8.1501005324       17.5173951950      -13.2073599678  W2        2180            0.0000000000
      6540      2180  TIP3      H2             -9.2628405324       16.7114551950      -13.8430999678  W2        2180            0.0000000000
      6541      2181  TIP3      OH2            -2.3071605324       16.7136851950      -10.3500699678  W2        2181            0.0000000000
      6542      2181  TIP3      H1             -2.5014505324       15.9658951950      -10.9151099678  W2        2181            0.0000000000
      6543      2181  TIP3      H2             -2.3461505324       17.4716951950      -10.9332799678  W2        2181            0.0000000000
      6544      2182  TIP3      OH2           -16.6599605324        0.7093251950        1.3897000322  W2        2182            0.0000000000
      6545      2182  TIP3      H1            -17.0261405324       -0.0564148050        1.8321700322  W2        2182            0.0000000000
      6546      2182  TIP3      H2            -15.7471105324        0.7383451950        1.6762100322  W2        2182            0.0000000000
      6547      2183  TIP3      OH2           -14.6868805324        0.0597651950        2.9254100322  W2        2183            0.0000000000
      6548      2183  TIP3      H1            -13.7885205324       -0.2142148050        2.7407500322  W2        2183            0.0000000000
      6549      2183  TIP3      H2            -15.0735705324       -0.6826348050        3.3896700322  W2        2183            0.0000000000
      6550      2184  TIP3      OH2           -16.0623505324       16.8612451950      -14.4015899678  W2        2184            0.0000000000
      6551      2184  TIP3      H1            -16.3298905324       17.1475351950      -13.5282799678  W2        2184            0.0000000000
      6552      2184  TIP3      H2            -15.2910905324       16.3151651950      -14.2493399678  W2        2184            0.0000000000
      6553      2185  TIP3      OH2            -6.2656505324       -0.6077048050        3.1076900322  W2        2185            0.0000000000
      6554      2185  TIP3      H1             -6.1889305324       -1.0336348050        3.9614600322  W2        2185            0.0000000000
      6555      2185  TIP3      H2             -5.3719905324       -0.5942348050        2.7650400322  W2        2185            0.0000000000
      6556      2186  TIP3      OH2            -3.0895405324       15.4649251950        1.8001100322  W2        2186            0.0000000000
      6557      2186  TIP3      H1             -3.8713505324       15.2787251950        1.2801700322  W2        2186            0.0000000000
      6558      2186  TIP3      H2             -3.1615505324       16.3943551950        2.0173600322  W2        2186            0.0000000000
      6559      2187  TIP3      OH2            11.3164994676        9.3513651950       -8.1691699678  W2        2187            0.0000000000
      6560      2187  TIP3      H1             11.4056094676       10.2951851950       -8.3014599678  W2        2187            0.0000000000
      6561      2187  TIP3      H2             10.6782594676        9.0760051950       -8.8272299678  W2        2187            0.0000000000
      6562      2188  TIP3      OH2            10.2496294676        8.6064351950       -4.7503499678  W2        2188            0.0000000000
      6563      2188  TIP3      H1             10.2113794676        7.9600651950       -4.0453899678  W2        2188            0.0000000000
      6564      2188  TIP3      H2              9.9272794676        8.1398751950       -5.5214799678  W2        2188            0.0000000000
      6565      2189  TIP3      OH2             2.6181294676        8.2206451950       -3.1573599678  W2        2189            0.0000000000
      6566      2189  TIP3      H1              2.6593394676        7.5949751950       -2.4341199678  W2        2189            0.0000000000
      6567      2189  TIP3      H2              3.3208994676        8.8445051950       -2.9753199678  W2        2189            0.0000000000
      6568      2190  TIP3      OH2            13.9556494676       11.5454751950       -6.4488399678  W2        2190            0.0000000000
      6569      2190  TIP3      H1             13.5149194676       10.8250751950       -5.9982799678  W2        2190            0.0000000000
      6570      2190  TIP3      H2             13.9426194676       12.2661951950       -5.8190699678  W2        2190            0.0000000000
      6571      2191  TIP3      OH2             3.5414394676       12.6705351950       -4.6224499678  W2        2191            0.0000000000
      6572      2191  TIP3      H1              3.1719594676       11.8685851950       -4.9920199678  W2        2191            0.0000000000
      6573      2191  TIP3      H2              4.4825494676       12.5020251950       -4.5761099678  W2        2191            0.0000000000
      6574      2192  TIP3      OH2             0.1514894676        6.3307951950       -9.2295699678  W2        2192            0.0000000000
      6575      2192  TIP3      H1             -0.2961705324        7.1766651950       -9.2479199678  W2        2192            0.0000000000
      6576      2192  TIP3      H2             -0.4093905324        5.7512151950       -9.7450599678  W2        2192            0.0000000000
      6577      2193  TIP3      OH2             0.8620994676        8.4927551950       -7.1037699678  W2        2193            0.0000000000
      6578      2193  TIP3      H1              1.0754494676        7.7229151950       -6.5764699678  W2        2193            0.0000000000
      6579      2193  TIP3      H2              1.5998594676        8.5824251950       -7.7070099678  W2        2193            0.0000000000
      6580      2194  TIP3      OH2            11.0671994676       16.6496451950       -6.2367999678  W2        2194            0.0000000000
      6581      2194  TIP3      H1             11.6868394676       15.9731151950       -6.5098799678  W2        2194            0.0000000000
      6582      2194  TIP3      H2             10.8589394676       16.4317251950       -5.3283099678  W2        2194            0.0000000000
      6583      2195  TIP3      OH2             8.6390694676       11.0385751950       -4.3442499678  W2        2195            0.0000000000
      6584      2195  TIP3      H1              8.9428594676       10.3527151950       -4.9388399678  W2        2195            0.0000000000
      6585      2195  TIP3      H2              9.3604694676       11.1574451950       -3.7264499678  W2        2195            0.0000000000
      6586      2196  TIP3      OH2            17.3020494676        2.6401051950       -3.4836299678  W2        2196            0.0000000000
      6587      2196  TIP3      H1             17.3512694676        3.2502251950       -2.7477199678  W2        2196            0.0000000000
      6588      2196  TIP3      H2             17.7275594676        3.1011951950       -4.2065199678  W2        2196            0.0000000000
      6589      2197  TIP3      OH2            11.7797694676        5.4328151950       -4.0167699678  W2        2197            0.0000000000
      6590      2197  TIP3      H1             11.9223594676        4.4865151950       -3.9966099678  W2        2197            0.0000000000
      6591      2197  TIP3      H2             11.6736694676        5.6397951950       -4.9452799678  W2        2197            0.0000000000
      6592      2198  TIP3      OH2             4.9345994676        3.5344551950       -6.7442899678  W2        2198            0.0000000000
      6593      2198  TIP3      H1              4.9777094676        4.3943051950       -7.1626599678  W2        2198            0.0000000000
      6594      2198  TIP3      H2              4.4770094676        2.9819251950       -7.3779699678  W2        2198            0.0000000000
      6595      2199  TIP3      OH2            12.6568694676        3.6650151950       -8.3434599678  W2        2199            0.0000000000
      6596      2199  TIP3      H1             13.3032994676        3.3363351950       -7.7186999678  W2        2199            0.0000000000
      6597      2199  TIP3      H2             13.1668094676        4.1829151950       -8.9663199678  W2        2199            0.0000000000
      6598      2200  TIP3      OH2             1.5547494676        5.9310351950       -5.9821499678  W2        2200            0.0000000000
      6599      2200  TIP3      H1              2.2084094676        5.3812051950       -5.5501399678  W2        2200            0.0000000000
      6600      2200  TIP3      H2              1.5786794676        5.6569351950       -6.8989499678  W2        2200            0.0000000000
      6601      2201  TIP3      OH2             6.7111994676        7.4811651950       -6.7669999678  W2        2201            0.0000000000
      6602      2201  TIP3      H1              7.3272994676        6.9547051950       -6.2575999678  W2        2201            0.0000000000
      6603      2201  TIP3      H2              6.1250794676        6.8410351950       -7.1706399678  W2        2201            0.0000000000
      6604      2202  TIP3      OH2            17.6935094676        4.1180251950       -1.2476499678  W2        2202            0.0000000000
      6605      2202  TIP3      H1             17.0049694676        4.7760951950       -1.3429899678  W2        2202            0.0000000000
      6606      2202  TIP3      H2             17.7089694676        3.9208151950       -0.3111099678  W2        2202            0.0000000000
      6607      2203  TIP3      OH2             3.7447894676        2.4522951950       -2.6702099678  W2        2203            0.0000000000
      6608      2203  TIP3      H1              3.5259594676        2.9823551950       -3.4366099678  W2        2203            0.0000000000
      6609      2203  TIP3      H2              3.0768794676        2.6788451950       -2.0230699678  W2        2203            0.0000000000
      6610      2204  TIP3      OH2            11.1137694676       11.9524051950       -9.1262999678  W2        2204            0.0000000000
      6611      2204  TIP3      H1             10.8182794676       11.6296351950       -9.9776099678  W2        2204            0.0000000000
      6612      2204  TIP3      H2             10.7895494676       12.8520751950       -9.0850399678  W2        2204            0.0000000000
      6613      2205  TIP3      OH2             6.3139294676       10.1278651950       -2.3828399678  W2        2205            0.0000000000
      6614      2205  TIP3      H1              5.5738394676       10.7260151950       -2.2793199678  W2        2205            0.0000000000
      6615      2205  TIP3      H2              7.0278794676       10.6818251950       -2.6984799678  W2        2205            0.0000000000
      6616      2206  TIP3      OH2            14.4207094676        2.9559451950       -6.3628699678  W2        2206            0.0000000000
      6617      2206  TIP3      H1             14.2055094676        2.1902851950       -5.8302699678  W2        2206            0.0000000000
      6618      2206  TIP3      H2             15.0764494676        3.4284051950       -5.8500199678  W2        2206            0.0000000000
      6619      2207  TIP3      OH2             3.3385194676        4.3444751950       -4.7179899678  W2        2207            0.0000000000
      6620      2207  TIP3      H1              3.9521494676        4.9772351950       -4.3447499678  W2        2207            0.0000000000
      6621      2207  TIP3      H2              3.8505894676        3.8719751950       -5.3742999678  W2        2207            0.0000000000
      6622      2208  TIP3      OH2             4.7213594676       12.0921651950       -1.5956899678  W2        2208            0.0000000000
      6623      2208  TIP3      H1              4.7161194676       12.9715151950       -1.9737599678  W2        2208            0.0000000000
      6624      2208  TIP3      H2              3.8677694676       12.0085751950       -1.1706999678  W2        2208            0.0000000000
      6625      2209  TIP3      OH2             0.8424494676       11.7629551950      -10.8137599678  W2        2209            0.0000000000
      6626      2209  TIP3      H1              0.5705394676       11.9920551950      -11.7024699678  W2        2209            0.0000000000
      6627      2209  TIP3      H2              0.8880194676       12.6008351950      -10.3532299678  W2        2209            0.0000000000
      6628      2210  TIP3      OH2            14.4674194676       13.3845451950       -4.1009099678  W2        2210            0.0000000000
      6629      2210  TIP3      H1             13.5257894676       13.4429351950       -3.9392199678  W2        2210            0.0000000000
      6630      2210  TIP3      H2             14.7440294676       14.2905951950       -4.2379399678  W2        2210            0.0000000000
      6631      2211  TIP3      OH2            14.7681194676        1.6710751950       -2.6835199678  W2        2211            0.0000000000
      6632      2211  TIP3      H1             14.0320394676        2.2817851950       -2.7213899678  W2        2211            0.0000000000
      6633      2211  TIP3      H2             15.4515194676        2.0859751950       -3.2098799678  W2        2211            0.0000000000
      6634      2212  TIP3      OH2             7.7712594676       -0.2421948050       -5.2177199678  W2        2212            0.0000000000
      6635      2212  TIP3      H1              7.6536794676       -1.1905948050       -5.2718899678  W2        2212            0.0000000000
      6636      2212  TIP3      H2              6.9162694676        0.0904151950       -4.9446099678  W2        2212            0.0000000000
      6637      2213  TIP3      OH2            12.7195394676       15.1658951950       -7.4757499678  W2        2213            0.0000000000
      6638      2213  TIP3      H1             13.1447694676       14.4586851950       -7.9607899678  W2        2213            0.0000000000
      6639      2213  TIP3      H2             13.0365394676       15.9671651950       -7.8925299678  W2        2213            0.0000000000
      6640      2214  TIP3      OH2            13.8791894676       13.0667451950       -8.9670899678  W2        2214            0.0000000000
      6641      2214  TIP3      H1             13.6216694676       12.3767551950       -9.5784999678  W2        2214            0.0000000000
      6642      2214  TIP3      H2             13.9502694676       12.6238651950       -8.1214999678  W2        2214            0.0000000000
      6643      2215  TIP3      OH2            15.5652094676       11.6334151950       -0.4897399678  W2        2215            0.0000000000
      6644      2215  TIP3      H1             15.7048394676       11.0416651950       -1.2290399678  W2        2215            0.0000000000
      6645      2215  TIP3      H2             15.7324894676       12.5060051950       -0.8458599678  W2        2215            0.0000000000
      6646      2216  TIP3      OH2            10.0377494676        8.5953651950      -10.7171399678  W2        2216            0.0000000000
      6647      2216  TIP3      H1              9.3262994676        9.1303351950      -11.0690899678  W2        2216            0.0000000000
      6648      2216  TIP3      H2             10.7287094676        8.6505751950      -11.3772499678  W2        2216            0.0000000000
      6649      2217  TIP3      OH2            10.0916694676        7.0527951950      -13.6786399678  W2        2217            0.0000000000
      6650      2217  TIP3      H1             10.7926594676        7.0754851950      -13.0272399678  W2        2217            0.0000000000
      6651      2217  TIP3      H2             10.3939594676        6.4247651950      -14.3347099678  W2        2217            0.0000000000
      6652      2218  TIP3      OH2            17.4071394676        7.9732151950       -2.4236999678  W2        2218            0.0000000000
      6653      2218  TIP3      H1             16.7545494676        8.6677751950       -2.3346099678  W2        2218            0.0000000000
      6654      2218  TIP3      H2             17.8721694676        8.1833051950       -3.2335399678  W2        2218            0.0000000000
      6655      2219  TIP3      OH2            13.4435194676        8.8046951950       -9.7655499678  W2        2219            0.0000000000
      6656      2219  TIP3      H1             12.7116194676        9.0330651950       -9.1924899678  W2        2219            0.0000000000
      6657      2219  TIP3      H2             13.8907394676        8.0909651950       -9.3107999678  W2        2219            0.0000000000
      6658      2220  TIP3      OH2            13.3408694676        6.9789551950       -0.6978499678  W2        2220            0.0000000000
      6659      2220  TIP3      H1             13.4207794676        7.7423951950       -0.1259999678  W2        2220            0.0000000000
      6660      2220  TIP3      H2             12.7396394676        7.2581951950       -1.3883399678  W2        2220            0.0000000000
      6661      2221  TIP3      OH2             5.0888894676        9.4353151950       -7.8830499678  W2        2221            0.0000000000
      6662      2221  TIP3      H1              4.7584094676        9.0646551950       -8.7013499678  W2        2221            0.0000000000
      6663      2221  TIP3      H2              5.6772994676        8.7647151950       -7.5362199678  W2        2221            0.0000000000
      6664      2222  TIP3      OH2             6.4556394676       12.8633751950       -5.2018299678  W2        2222            0.0000000000
      6665      2222  TIP3      H1              6.3607694676       12.2846851950       -5.9583699678  W2        2222            0.0000000000
      6666      2222  TIP3      H2              7.1849994676       12.4919451950       -4.7055499678  W2        2222            0.0000000000
      6667      2223  TIP3      OH2             5.4554394676        8.2038751950       -4.2495499678  W2        2223            0.0000000000
      6668      2223  TIP3      H1              6.0206894676        8.3252951950       -5.0124299678  W2        2223            0.0000000000
      6669      2223  TIP3      H2              5.7743294676        8.8413751950       -3.6106999678  W2        2223            0.0000000000
      6670      2224  TIP3      OH2            11.7646594676       13.7070651950       -3.5154999678  W2        2224            0.0000000000
      6671      2224  TIP3      H1             11.5243194676       14.3693751950       -2.8675799678  W2        2224            0.0000000000
      6672      2224  TIP3      H2             11.5664794676       12.8725851950       -3.0905399678  W2        2224            0.0000000000
      6673      2225  TIP3      OH2             6.3355094676       12.6031451950        0.4676400322  W2        2225            0.0000000000
      6674      2225  TIP3      H1              6.0242594676       13.3854651950        0.9229600322  W2        2225            0.0000000000
      6675      2225  TIP3      H2              5.6855294676       12.4500551950       -0.2181599678  W2        2225            0.0000000000
      6676      2226  TIP3      OH2            12.3144694676        7.9669851950      -12.0804299678  W2        2226            0.0000000000
      6677      2226  TIP3      H1             12.8940194676        8.1170151950      -11.3335399678  W2        2226            0.0000000000
      6678      2226  TIP3      H2             12.7284694676        8.4377251950      -12.8037899678  W2        2226            0.0000000000
      6679      2227  TIP3      OH2             3.2554994676        8.8012551950       -0.3037899678  W2        2227            0.0000000000
      6680      2227  TIP3      H1              3.3258194676        9.4519351950        0.3947100322  W2        2227            0.0000000000
      6681      2227  TIP3      H2              2.3647194676        8.9040051950       -0.6386999678  W2        2227            0.0000000000
      6682      2228  TIP3      OH2            10.0409594676       14.7038351950       -8.6451199678  W2        2228            0.0000000000
      6683      2228  TIP3      H1             10.5147194676       14.9994651950       -7.8676999678  W2        2228            0.0000000000
      6684      2228  TIP3      H2              9.4778894676       15.4419951950       -8.8781599678  W2        2228            0.0000000000
      6685      2229  TIP3      OH2             4.5750994676       14.6746451950        1.2310200322  W2        2229            0.0000000000
      6686      2229  TIP3      H1              4.5826294676       14.5386151950        0.2835700322  W2        2229            0.0000000000
      6687      2229  TIP3      H2              3.6591394676       14.5574551950        1.4830200322  W2        2229            0.0000000000
      6688      2230  TIP3      OH2            16.0133094676       -0.2829748050      -12.2674599678  W2        2230            0.0000000000
      6689      2230  TIP3      H1             15.1133794676       -0.1440748050      -11.9723999678  W2        2230            0.0000000000
      6690      2230  TIP3      H2             16.2651494676        0.5484851950      -12.6692899678  W2        2230            0.0000000000
      6691      2231  TIP3      OH2             4.0791594676        8.5047451950      -10.2937699678  W2        2231            0.0000000000
      6692      2231  TIP3      H1              3.7872894676        9.2729151950      -10.7846399678  W2        2231            0.0000000000
      6693      2231  TIP3      H2              3.4046794676        7.8453651950      -10.4566299678  W2        2231            0.0000000000
      6694      2232  TIP3      OH2            17.2024494676       14.0832651950      -13.8910699678  W2        2232            0.0000000000
      6695      2232  TIP3      H1             17.2757994676       15.0222851950      -13.7205399678  W2        2232            0.0000000000
      6696      2232  TIP3      H2             18.1079594676       13.7781251950      -13.9473399678  W2        2232            0.0000000000
      6697      2233  TIP3      OH2             0.1721694676       10.8676651950       -1.4787899678  W2        2233            0.0000000000
      6698      2233  TIP3      H1             -0.3289905324       10.8396051950       -2.2938199678  W2        2233            0.0000000000
      6699      2233  TIP3      H2              0.1775394676        9.9619851950       -1.1690599678  W2        2233            0.0000000000
      6700      2234  TIP3      OH2            -0.0775605324       13.6480451950       -4.5947699678  W2        2234            0.0000000000
      6701      2234  TIP3      H1              0.8684994676       13.5037451950       -4.6138199678  W2        2234            0.0000000000
      6702      2234  TIP3      H2             -0.1899305324       14.4323251950       -4.0576499678  W2        2234            0.0000000000
      6703      2235  TIP3      OH2            18.1202894676       14.3140151950        1.0876000322  W2        2235            0.0000000000
      6704      2235  TIP3      H1             18.0709694676       13.3588251950        1.0503600322  W2        2235            0.0000000000
      6705      2235  TIP3      H2             17.2935194676       14.5815451950        1.4889800322  W2        2235            0.0000000000
      6706      2236  TIP3      OH2             9.0986894676       13.8879351950       -0.0362599678  W2        2236            0.0000000000
      6707      2236  TIP3      H1              9.1861494676       14.7143951950        0.4386500322  W2        2236            0.0000000000
      6708      2236  TIP3      H2              8.2351994676       13.5583151950        0.2126700322  W2        2236            0.0000000000
      6709      2237  TIP3      OH2             9.5132694676       17.6603051950      -10.2301999678  W2        2237            0.0000000000
      6710      2237  TIP3      H1              9.4378694676       17.5390251950      -11.1766799678  W2        2237            0.0000000000
      6711      2237  TIP3      H2              9.5461394676       18.6095751950      -10.1117399678  W2        2237            0.0000000000
      6712      2238  TIP3      OH2             3.1666494676       16.4490051950       -8.4492999678  W2        2238            0.0000000000
      6713      2238  TIP3      H1              3.3186894676       16.1010451950       -7.5706499678  W2        2238            0.0000000000
      6714      2238  TIP3      H2              2.3156894676       16.0927351950       -8.7045799678  W2        2238            0.0000000000
      6715      2239  TIP3      OH2            12.6148694676       16.8143251950      -13.2279599678  W2        2239            0.0000000000
      6716      2239  TIP3      H1             12.9897094676       16.0699351950      -13.6986999678  W2        2239            0.0000000000
      6717      2239  TIP3      H2             12.6192394676       16.5443851950      -12.3096299678  W2        2239            0.0000000000
      6718      2240  TIP3      OH2            12.2836794676       16.7400351950      -10.4787399678  W2        2240            0.0000000000
      6719      2240  TIP3      H1             11.3486594676       16.8402251950      -10.3000399678  W2        2240            0.0000000000
      6720      2240  TIP3      H2             12.5638694676       16.0306351950       -9.9004199678  W2        2240            0.0000000000
      6721      2241  TIP3      OH2            15.2722694676        5.8072651950        1.5678200322  W2        2241            0.0000000000
      6722      2241  TIP3      H1             14.8649494676        6.2878251950        0.8471500322  W2        2241            0.0000000000
      6723      2241  TIP3      H2             15.3128394676        4.9018651950        1.2599000322  W2        2241            0.0000000000
      6724      2242  TIP3      OH2             2.4212194676       12.1912051950       -0.4355099678  W2        2242            0.0000000000
      6725      2242  TIP3      H1              2.6373494676       11.8297651950        0.4240700322  W2        2242            0.0000000000
      6726      2242  TIP3      H2              1.5656894676       11.8165851950       -0.6451599678  W2        2242            0.0000000000
      6727      2243  TIP3      OH2             5.0400194676        0.6612551950       -4.4400899678  W2        2243            0.0000000000
      6728      2243  TIP3      H1              4.1783894676        0.5740751950       -4.8477999678  W2        2243            0.0000000000
      6729      2243  TIP3      H2              5.0175894676        1.5172651950       -4.0123299678  W2        2243            0.0000000000
      6730      2244  TIP3      OH2             9.7027994676        0.3832951950       -1.0653899678  W2        2244            0.0000000000
      6731      2244  TIP3      H1             10.1231094676       -0.0319948050       -0.3123299678  W2        2244            0.0000000000
      6732      2244  TIP3      H2              8.7697594676        0.2046251950       -0.9481899678  W2        2244            0.0000000000
      6733      2245  TIP3      OH2            13.0292894676        4.1388151950       -0.2119399678  W2        2245            0.0000000000
      6734      2245  TIP3      H1             12.5152394676        4.0130351950        0.5856600322  W2        2245            0.0000000000
      6735      2245  TIP3      H2             12.8737594676        5.0511251950       -0.4563199678  W2        2245            0.0000000000
      6736      2246  TIP3      OH2            13.7917794676        8.9998151950      -14.4506399678  W2        2246            0.0000000000
      6737      2246  TIP3      H1             13.8338594676        8.7772051950      -15.3806399678  W2        2246            0.0000000000
      6738      2246  TIP3      H2             14.6409894676        9.3985251950      -14.2606499678  W2        2246            0.0000000000
      6739      2247  TIP3      OH2             9.3645294676        2.8756351950      -13.7803099678  W2        2247            0.0000000000
      6740      2247  TIP3      H1              9.1110094676        2.8947951950      -12.8574999678  W2        2247            0.0000000000
      6741      2247  TIP3      H2              9.1077394676        2.0041751950      -14.0816899678  W2        2247            0.0000000000
      6742      2248  TIP3      OH2             5.1310294676        5.6267051950       -3.3450699678  W2        2248            0.0000000000
      6743      2248  TIP3      H1              4.4892394676        5.5864351950       -2.6360599678  W2        2248            0.0000000000
      6744      2248  TIP3      H2              5.1682294676        6.5531751950       -3.5827699678  W2        2248            0.0000000000
      6745      2249  TIP3      OH2             5.1279394676        5.8477151950       -8.4330699678  W2        2249            0.0000000000
      6746      2249  TIP3      H1              4.2352294676        5.5073251950       -8.4916899678  W2        2249            0.0000000000
      6747      2249  TIP3      H2              5.5785994676        5.4708051950       -9.1887499678  W2        2249            0.0000000000
      6748      2250  TIP3      OH2            10.6634894676        6.2637451950       -9.6159899678  W2        2250            0.0000000000
      6749      2250  TIP3      H1             10.2545194676        7.0786051950       -9.9075099678  W2        2250            0.0000000000
      6750      2250  TIP3      H2             11.3841094676        6.1237551950      -10.2302799678  W2        2250            0.0000000000
      6751      2251  TIP3      OH2             9.7656494676        6.4393851950        1.8720800322  W2        2251            0.0000000000
      6752      2251  TIP3      H1              9.2030294676        5.7345451950        2.1928600322  W2        2251            0.0000000000
      6753      2251  TIP3      H2             10.5919894676        6.3185751950        2.3398400322  W2        2251            0.0000000000
      6754      2252  TIP3      OH2            11.6682594676        5.7097851950       -6.8020199678  W2        2252            0.0000000000
      6755      2252  TIP3      H1             11.4727094676        6.3154651950       -7.5169599678  W2        2252            0.0000000000
      6756      2252  TIP3      H2             11.8495194676        4.8763051950       -7.2363899678  W2        2252            0.0000000000
      6757      2253  TIP3      OH2             2.8810794676        5.9470551950       -1.4778699678  W2        2253            0.0000000000
      6758      2253  TIP3      H1              2.8430194676        6.3472151950       -0.6091599678  W2        2253            0.0000000000
      6759      2253  TIP3      H2              2.3901894676        5.1302951950       -1.3875799678  W2        2253            0.0000000000
      6760      2254  TIP3      OH2             6.2468194676        3.3212851950      -14.6792699678  W2        2254            0.0000000000
      6761      2254  TIP3      H1              5.8158894676        2.8762951950      -13.9495299678  W2        2254            0.0000000000
      6762      2254  TIP3      H2              5.5286894676        3.6929151950      -15.1915199678  W2        2254            0.0000000000
      6763      2255  TIP3      OH2            -0.5108405324        3.0632351950       -7.6273999678  W2        2255            0.0000000000
      6764      2255  TIP3      H1              0.1199294676        3.0344451950       -6.9080099678  W2        2255            0.0000000000
      6765      2255  TIP3      H2             -0.0614105324        2.6381051950       -8.3578099678  W2        2255            0.0000000000
      6766      2256  TIP3      OH2             0.7633694676        3.8094351950      -12.2033599678  W2        2256            0.0000000000
      6767      2256  TIP3      H1              1.2375394676        4.4004251950      -12.7882699678  W2        2256            0.0000000000
      6768      2256  TIP3      H2              0.0460094676        4.3397251950      -11.8563499678  W2        2256            0.0000000000
      6769      2257  TIP3      OH2            10.9321794676        7.3479151950       -2.1307799678  W2        2257            0.0000000000
      6770      2257  TIP3      H1             11.2556594676        6.7168851950       -2.7737299678  W2        2257            0.0000000000
      6771      2257  TIP3      H2             10.4921094676        6.8131351950       -1.4700399678  W2        2257            0.0000000000
      6772      2258  TIP3      OH2             7.7094694676        3.2754651950       -7.3466599678  W2        2258            0.0000000000
      6773      2258  TIP3      H1              6.7985794676        3.3321451950       -7.0580599678  W2        2258            0.0000000000
      6774      2258  TIP3      H2              8.2147594676        3.2150151950       -6.5359399678  W2        2258            0.0000000000
      6775      2259  TIP3      OH2             2.5378094676        4.9040951950       -8.5198999678  W2        2259            0.0000000000
      6776      2259  TIP3      H1              1.6486094676        5.0036451950       -8.8599399678  W2        2259            0.0000000000
      6777      2259  TIP3      H2              2.8342994676        4.0623951950       -8.8661099678  W2        2259            0.0000000000
      6778      2260  TIP3      OH2             6.1909894676        4.9043551950      -10.8634399678  W2        2260            0.0000000000
      6779      2260  TIP3      H1              7.1225394676        5.0333551950      -10.6851299678  W2        2260            0.0000000000
      6780      2260  TIP3      H2              5.9760194676        5.5737851950      -11.5129699678  W2        2260            0.0000000000
      6781      2261  TIP3      OH2            12.1146594676        2.5100951950       -4.0824799678  W2        2261            0.0000000000
      6782      2261  TIP3      H1             11.4378194676        2.6414051950       -3.4185099678  W2        2261            0.0000000000
      6783      2261  TIP3      H2             11.6291494676        2.3550451950       -4.8927099678  W2        2261            0.0000000000
      6784      2262  TIP3      OH2             4.8650094676        6.0985751950      -13.2968299678  W2        2262            0.0000000000
      6785      2262  TIP3      H1              4.3225194676        5.7189551950      -13.9880699678  W2        2262            0.0000000000
      6786      2262  TIP3      H2              5.6984994676        6.2930451950      -13.7254199678  W2        2262            0.0000000000
      6787      2263  TIP3      OH2            15.4021694676       18.1816351950        2.1942800322  W2        2263            0.0000000000
      6788      2263  TIP3      H1             15.6020394676       18.6058251950        1.3598100322  W2        2263            0.0000000000
      6789      2263  TIP3      H2             16.0575394676       18.5254551950        2.8013200322  W2        2263            0.0000000000
      6790      2264  TIP3      OH2             3.0001494676       10.6557651950        1.8023300322  W2        2264            0.0000000000
      6791      2264  TIP3      H1              3.7323894676       10.9103551950        2.3637800322  W2        2264            0.0000000000
      6792      2264  TIP3      H2              2.2200194676       10.8603051950        2.3178700322  W2        2264            0.0000000000
      6793      2265  TIP3      OH2             9.0294394676        6.0627651950       -5.4596999678  W2        2265            0.0000000000
      6794      2265  TIP3      H1              9.5937794676        5.5164251950       -6.0067399678  W2        2265            0.0000000000
      6795      2265  TIP3      H2              8.8817794676        5.5409551950       -4.6709399678  W2        2265            0.0000000000
      6796      2266  TIP3      OH2             4.0314094676        2.1993751950       -9.0412199678  W2        2266            0.0000000000
      6797      2266  TIP3      H1              3.7143594676        1.2969051950       -9.0766799678  W2        2266            0.0000000000
      6798      2266  TIP3      H2              4.8128194676        2.2011151950       -9.5940599678  W2        2266            0.0000000000
      6799      2267  TIP3      OH2             7.6560294676        4.4513751950       -3.0456599678  W2        2267            0.0000000000
      6800      2267  TIP3      H1              6.8205594676        4.9053251950       -2.9354199678  W2        2267            0.0000000000
      6801      2267  TIP3      H2              8.1800894676        4.7272251950       -2.2936699678  W2        2267            0.0000000000
      6802      2268  TIP3      OH2             8.2002894676       10.6641451950      -11.3610199678  W2        2268            0.0000000000
      6803      2268  TIP3      H1              7.4553894676       10.1566751950      -11.6832299678  W2        2268            0.0000000000
      6804      2268  TIP3      H2              8.0660094676       10.7129451950      -10.4145399678  W2        2268            0.0000000000
      6805      2269  TIP3      OH2            15.3501794676        9.7969651950       -2.5742599678  W2        2269            0.0000000000
      6806      2269  TIP3      H1             15.9920594676       10.2535951950       -3.1180399678  W2        2269            0.0000000000
      6807      2269  TIP3      H2             14.5198694676        9.9102051950       -3.0368499678  W2        2269            0.0000000000
      6808      2270  TIP3      OH2            12.0979694676        3.4781351950      -13.1617599678  W2        2270            0.0000000000
      6809      2270  TIP3      H1             11.1593894676        3.5896951950      -13.3128799678  W2        2270            0.0000000000
      6810      2270  TIP3      H2             12.3951794676        4.3348251950      -12.8551899678  W2        2270            0.0000000000
      6811      2271  TIP3      OH2             9.7194994676       10.8484751950       -0.1241099678  W2        2271            0.0000000000
      6812      2271  TIP3      H1              9.3741094676       10.4667151950        0.6828500322  W2        2271            0.0000000000
      6813      2271  TIP3      H2              9.5195094676       11.7818351950       -0.0528199678  W2        2271            0.0000000000
      6814      2272  TIP3      OH2            12.8163194676        5.3454051950      -11.5010199678  W2        2272            0.0000000000
      6815      2272  TIP3      H1             13.7082194676        5.2079051950      -11.1818999678  W2        2272            0.0000000000
      6816      2272  TIP3      H2             12.8726794676        6.1360151950      -12.0376699678  W2        2272            0.0000000000
      6817      2273  TIP3      OH2             3.3251194676        9.9591451950       -5.5912299678  W2        2273            0.0000000000
      6818      2273  TIP3      H1              4.0698394676        9.9567151950       -6.1925799678  W2        2273            0.0000000000
      6819      2273  TIP3      H2              3.4027794676        9.1355251950       -5.1097199678  W2        2273            0.0000000000
      6820      2274  TIP3      OH2            10.3256994676       12.1225751950      -12.3355599678  W2        2274            0.0000000000
      6821      2274  TIP3      H1             10.0305394676       12.9493651950      -11.9540799678  W2        2274            0.0000000000
      6822      2274  TIP3      H2              9.6226994676       11.5032651950      -12.1394199678  W2        2274            0.0000000000
      6823      2275  TIP3      OH2             0.3330894676        8.4198351950       -0.2763799678  W2        2275            0.0000000000
      6824      2275  TIP3      H1              0.5559494676        8.0017951950        0.5553700322  W2        2275            0.0000000000
      6825      2275  TIP3      H2             -0.2689005324        7.8073351950       -0.6990999678  W2        2275            0.0000000000
      6826      2276  TIP3      OH2             7.3495794676        7.9368251950        1.9365900322  W2        2276            0.0000000000
      6827      2276  TIP3      H1              7.0536594676        7.7711251950        1.0415000322  W2        2276            0.0000000000
      6828      2276  TIP3      H2              8.2810994676        7.7168551950        1.9259800322  W2        2276            0.0000000000
      6829      2277  TIP3      OH2            11.9698594676       13.3100251950       -0.1736099678  W2        2277            0.0000000000
      6830      2277  TIP3      H1             11.0692894676       13.4932851950       -0.4412199678  W2        2277            0.0000000000
      6831      2277  TIP3      H2             12.0039694676       13.5689551950        0.7472700322  W2        2277            0.0000000000
      6832      2278  TIP3      OH2            17.7011894676        5.5548151950      -11.8063499678  W2        2278            0.0000000000
      6833      2278  TIP3      H1             17.1468194676        5.1586151950      -12.4785999678  W2        2278            0.0000000000
      6834      2278  TIP3      H2             17.8015494676        6.4653351950      -12.0840199678  W2        2278            0.0000000000
      6835      2279  TIP3      OH2            17.6643894676       11.3549851950        1.0308000322  W2        2279            0.0000000000
      6836      2279  TIP3      H1             16.8132394676       11.5933651950        0.6634400322  W2        2279            0.0000000000
      6837      2279  TIP3      H2             18.2547294676       11.3383051950        0.2775100322  W2        2279            0.0000000000
      6838      2280  TIP3      OH2            15.9963594676       14.3408551950      -11.3411399678  W2        2280            0.0000000000
      6839      2280  TIP3      H1             15.6234694676       13.5152351950      -11.0320799678  W2        2280            0.0000000000
      6840      2280  TIP3      H2             16.2737094676       14.1577951950      -12.2387999678  W2        2280            0.0000000000
      6841      2281  TIP3      OH2            13.1567494676        9.1488051950       -4.3199499678  W2        2281            0.0000000000
      6842      2281  TIP3      H1             12.2284394676        8.9169951950       -4.3470199678  W2        2281            0.0000000000
      6843      2281  TIP3      H2             13.6078594676        8.3717851950       -4.6500699678  W2        2281            0.0000000000
      6844      2282  TIP3      OH2             5.7000594676       13.4769651950       -8.1870799678  W2        2282            0.0000000000
      6845      2282  TIP3      H1              6.2272794676       14.2504051950       -8.3871999678  W2        2282            0.0000000000
      6846      2282  TIP3      H2              4.8199094676       13.7018851950       -8.4886799678  W2        2282            0.0000000000
      6847      2283  TIP3      OH2             1.4548294676        8.3393751950      -13.5998399678  W2        2283            0.0000000000
      6848      2283  TIP3      H1              2.0708194676        8.9660951950      -13.2203599678  W2        2283            0.0000000000
      6849      2283  TIP3      H2              0.5930894676        8.6553551950      -13.3281899678  W2        2283            0.0000000000
      6850      2284  TIP3      OH2             7.1272894676       11.1399551950       -8.6106499678  W2        2284            0.0000000000
      6851      2284  TIP3      H1              6.8862894676       12.0653951950       -8.5691199678  W2        2284            0.0000000000
      6852      2284  TIP3      H2              6.3866494676       10.6810851950       -8.2142599678  W2        2284            0.0000000000
      6853      2285  TIP3      OH2             7.6419494676       15.2893151950       -2.2955399678  W2        2285            0.0000000000
      6854      2285  TIP3      H1              8.0044194676       16.1438751950       -2.5290999678  W2        2285            0.0000000000
      6855      2285  TIP3      H2              8.1734694676       14.9974751950       -1.5549099678  W2        2285            0.0000000000
      6856      2286  TIP3      OH2             5.8103694676       16.1617151950       -9.0654299678  W2        2286            0.0000000000
      6857      2286  TIP3      H1              4.8604194676       16.2674551950       -9.0140999678  W2        2286            0.0000000000
      6858      2286  TIP3      H2              6.1621794676       16.9824551950       -8.7206799678  W2        2286            0.0000000000
      6859      2287  TIP3      OH2            11.1860294676       11.3883851950       -2.5949799678  W2        2287            0.0000000000
      6860      2287  TIP3      H1             10.7601594676       11.1605551950       -1.7685799678  W2        2287            0.0000000000
      6861      2287  TIP3      H2             11.7666094676       10.6495651950       -2.7774499678  W2        2287            0.0000000000
      6862      2288  TIP3      OH2            13.3889194676       12.3174351950      -13.5210799678  W2        2288            0.0000000000
      6863      2288  TIP3      H1             13.7422294676       11.9374151950      -12.7167299678  W2        2288            0.0000000000
      6864      2288  TIP3      H2             12.4402694676       12.2239151950      -13.4341499678  W2        2288            0.0000000000
      6865      2289  TIP3      OH2            13.8444494676       15.9403351950       -0.1254999678  W2        2289            0.0000000000
      6866      2289  TIP3      H1             13.2427694676       15.3846251950       -0.6208699678  W2        2289            0.0000000000
      6867      2289  TIP3      H2             14.1258194676       16.6073151950       -0.7517599678  W2        2289            0.0000000000
      6868      2290  TIP3      OH2            17.8923594676       16.7966851950      -13.3200599678  W2        2290            0.0000000000
      6869      2290  TIP3      H1             18.6361494676       17.3827351950      -13.4598999678  W2        2290            0.0000000000
      6870      2290  TIP3      H2             17.1981694676       17.3652651950      -12.9868199678  W2        2290            0.0000000000
      6871      2291  TIP3      OH2             1.9670394676        3.1731051950       -0.7182399678  W2        2291            0.0000000000
      6872      2291  TIP3      H1              1.0742694676        3.5116451950       -0.7858399678  W2        2291            0.0000000000
      6873      2291  TIP3      H2              1.8683194676        2.3177151950       -0.3001599678  W2        2291            0.0000000000
      6874      2292  TIP3      OH2            14.2548494676       10.9896351950      -11.2942899678  W2        2292            0.0000000000
      6875      2292  TIP3      H1             13.9776094676       10.2615651950      -10.7381799678  W2        2292            0.0000000000
      6876      2292  TIP3      H2             15.1821494676       11.1088351950      -11.0890299678  W2        2292            0.0000000000
      6877      2293  TIP3      OH2             1.6182394676       14.9775451950       -2.2832999678  W2        2293            0.0000000000
      6878      2293  TIP3      H1              1.8352694676       14.0457851950       -2.3143299678  W2        2293            0.0000000000
      6879      2293  TIP3      H2              1.8645894676       15.2520451950       -1.4000199678  W2        2293            0.0000000000
      6880      2294  TIP3      OH2             7.4796994676       13.4290451950      -15.0740799678  W2        2294            0.0000000000
      6881      2294  TIP3      H1              7.7186794676       12.6808551950      -15.6211899678  W2        2294            0.0000000000
      6882      2294  TIP3      H2              7.2108294676       13.0412151950      -14.2412999678  W2        2294            0.0000000000
      6883      2295  TIP3      OH2             6.4167594676       12.9994251950      -12.6178199678  W2        2295            0.0000000000
      6884      2295  TIP3      H1              6.5635594676       12.4794051950      -11.8277299678  W2        2295            0.0000000000
      6885      2295  TIP3      H2              6.4139294676       13.9061851950      -12.3112299678  W2        2295            0.0000000000
      6886      2296  TIP3      OH2             2.8698694676       10.2517551950      -12.1072799678  W2        2296            0.0000000000
      6887      2296  TIP3      H1              2.1837994676       10.6040051950      -11.5403099678  W2        2296            0.0000000000
      6888      2296  TIP3      H2              3.3926594676       11.0147151950      -12.3538499678  W2        2296            0.0000000000
      6889      2297  TIP3      OH2            10.7013794676        2.9141351950       -1.8283799678  W2        2297            0.0000000000
      6890      2297  TIP3      H1             11.4001694676        2.9880051950       -1.1784099678  W2        2297            0.0000000000
      6891      2297  TIP3      H2             10.3205194676        2.0496351950       -1.6740899678  W2        2297            0.0000000000
      6892      2298  TIP3      OH2            11.4858694676        2.5663051950      -10.7311499678  W2        2298            0.0000000000
      6893      2298  TIP3      H1             11.7056994676        3.0378451950      -11.5346099678  W2        2298            0.0000000000
      6894      2298  TIP3      H2             12.0442694676        2.9605651950      -10.0610899678  W2        2298            0.0000000000
      6895      2299  TIP3      OH2             9.1544794676       14.6967851950      -11.8683999678  W2        2299            0.0000000000
      6896      2299  TIP3      H1              8.3380894676       15.1937551950      -11.8159699678  W2        2299            0.0000000000
      6897      2299  TIP3      H2              9.6841094676       15.1721351950      -12.5085199678  W2        2299            0.0000000000
      6898      2300  TIP3      OH2             8.6858594676        4.2941851950       -9.8963099678  W2        2300            0.0000000000
      6899      2300  TIP3      H1              9.4981194676        4.7985051950       -9.8501399678  W2        2300            0.0000000000
      6900      2300  TIP3      H2              8.4411594676        4.1491551950       -8.9823499678  W2        2300            0.0000000000
      6901      2301  TIP3      OH2             9.2214994676        5.2804551950       -0.7116499678  W2        2301            0.0000000000
      6902      2301  TIP3      H1              9.3405294676        5.8539951950        0.0453900322  W2        2301            0.0000000000
      6903      2301  TIP3      H2              9.8769594676        4.5923951950       -0.5968699678  W2        2301            0.0000000000
      6904      2302  TIP3      OH2             9.5695294676        1.3754851950       -8.9581999678  W2        2302            0.0000000000
      6905      2302  TIP3      H1              9.2228794676        1.9925451950       -8.3137699678  W2        2302            0.0000000000
      6906      2302  TIP3      H2             10.2282194676        1.8760551950       -9.4396499678  W2        2302            0.0000000000
      6907      2303  TIP3      OH2             6.4927894676       15.7405051950      -11.8867099678  W2        2303            0.0000000000
      6908      2303  TIP3      H1              6.6536594676       16.5402551950      -12.3874499678  W2        2303            0.0000000000
      6909      2303  TIP3      H2              6.2955694676       16.0471051950      -11.0016499678  W2        2303            0.0000000000
      6910      2304  TIP3      OH2             5.2272294676        2.4384251950      -12.2709499678  W2        2304            0.0000000000
      6911      2304  TIP3      H1              5.1437094676        3.3267351950      -11.9243099678  W2        2304            0.0000000000
      6912      2304  TIP3      H2              6.1172594676        2.1730951950      -12.0392699678  W2        2304            0.0000000000
      6913      2305  TIP3      OH2            15.4260794676        3.1874851950        0.1233200322  W2        2305            0.0000000000
      6914      2305  TIP3      H1             14.5096594676        3.4496551950        0.0356900322  W2        2305            0.0000000000
      6915      2305  TIP3      H2             15.7615794676        3.1843851950       -0.7731499678  W2        2305            0.0000000000
      6916      2306  TIP3      OH2            14.0281794676        6.9375851950       -5.7809499678  W2        2306            0.0000000000
      6917      2306  TIP3      H1             13.2306194676        6.5226051950       -6.1094499678  W2        2306            0.0000000000
      6918      2306  TIP3      H2             14.4732894676        6.2469551950       -5.2898999678  W2        2306            0.0000000000
      6919      2307  TIP3      OH2             3.4857594676       12.8656451950      -13.2104999678  W2        2307            0.0000000000
      6920      2307  TIP3      H1              4.0779094676       13.5651251950      -12.9342599678  W2        2307            0.0000000000
      6921      2307  TIP3      H2              3.9450594676       12.4325951950      -13.9300399678  W2        2307            0.0000000000
      6922      2308  TIP3      OH2             1.8016794676        5.5299451950      -14.0945599678  W2        2308            0.0000000000
      6923      2308  TIP3      H1              1.7569394676        6.4692551950      -13.9158599678  W2        2308            0.0000000000
      6924      2308  TIP3      H2              0.9139994676        5.2944351950      -14.3643499678  W2        2308            0.0000000000
      6925      2309  TIP3      OH2            15.1146394676       16.1938351950       -4.1585999678  W2        2309            0.0000000000
      6926      2309  TIP3      H1             14.9590694676       16.8722751950       -4.8156699678  W2        2309            0.0000000000
      6927      2309  TIP3      H2             16.0472794676       16.2657651950       -3.9555399678  W2        2309            0.0000000000
      6928      2310  TIP3      OH2             2.6098794676        0.3116051950       -5.4214599678  W2        2310            0.0000000000
      6929      2310  TIP3      H1              2.3808594676        0.3708551950       -6.3489599678  W2        2310            0.0000000000
      6930      2310  TIP3      H2              2.1672194676       -0.4798448050       -5.1150499678  W2        2310            0.0000000000
      6931      2311  TIP3      OH2             1.5402094676       14.2523151950       -9.2608799678  W2        2311            0.0000000000
      6932      2311  TIP3      H1              0.7080694676       14.7245851950       -9.2337399678  W2        2311            0.0000000000
      6933      2311  TIP3      H2              2.0860394676       14.7620751950       -9.8595699678  W2        2311            0.0000000000
      6934      2312  TIP3      OH2             0.8285794676       16.8646851950        2.0689200322  W2        2312            0.0000000000
      6935      2312  TIP3      H1              1.3687994676       16.6480851950        2.8288400322  W2        2312            0.0000000000
      6936      2312  TIP3      H2              0.3473794676       16.0592851950        1.8791700322  W2        2312            0.0000000000
      6937      2313  TIP3      OH2             5.4259194676       15.7841251950        3.6893400322  W2        2313            0.0000000000
      6938      2313  TIP3      H1              6.1936394676       15.3252051950        4.0302600322  W2        2313            0.0000000000
      6939      2313  TIP3      H2              5.4045394676       15.5581051950        2.7594600322  W2        2313            0.0000000000
      6940      2314  TIP3      OH2             9.5178794676       15.2921851950      -14.9354799678  W2        2314            0.0000000000
      6941      2314  TIP3      H1              8.8739794676       14.6610451950      -14.6141099678  W2        2314            0.0000000000
      6942      2314  TIP3      H2             10.2797094676       14.7609851950      -15.1671299678  W2        2314            0.0000000000
      6943      2315  TIP3      OH2            12.0027894676       14.1642351950        2.4184900322  W2        2315            0.0000000000
      6944      2315  TIP3      H1             11.6517394676       13.3075351950        2.6615300322  W2        2315            0.0000000000
      6945      2315  TIP3      H2             12.7291094676       14.3069051950        3.0253900322  W2        2315            0.0000000000
      6946      2316  TIP3      OH2            14.1221694676       15.1091751950      -14.7016799678  W2        2316            0.0000000000
      6947      2316  TIP3      H1             14.4052094676       14.3146951950      -14.2489899678  W2        2316            0.0000000000
      6948      2316  TIP3      H2             14.8619594676       15.3422751950      -15.2625699678  W2        2316            0.0000000000
      6949      2317  TIP3      OH2             0.7355294676       10.6750951950        3.0233500322  W2        2317            0.0000000000
      6950      2317  TIP3      H1              0.8795794676        9.7731651950        2.7370200322  W2        2317            0.0000000000
      6951      2317  TIP3      H2             -0.0367305324       10.9613051950        2.5355800322  W2        2317            0.0000000000
      6952      2318  TIP3      OH2             5.0768994676       11.0186651950      -14.8441899678  W2        2318            0.0000000000
      6953      2318  TIP3      H1              5.1413094676       10.2246251950      -14.3135499678  W2        2318            0.0000000000
      6954      2318  TIP3      H2              5.7298194676       10.8999451950      -15.5339899678  W2        2318            0.0000000000
      6955      2319  TIP3      OH2             7.3911394676       10.6449051950        2.4559900322  W2        2319            0.0000000000
      6956      2319  TIP3      H1              7.0625194676       10.9157151950        1.5987300322  W2        2319            0.0000000000
      6957      2319  TIP3      H2              7.5429594676        9.7038851950        2.3684900322  W2        2319            0.0000000000
      6958      2320  TIP3      OH2            10.4292394676       12.0658351950      -15.1083899678  W2        2320            0.0000000000
      6959      2320  TIP3      H1             10.1606494676       12.2460451950      -14.2074999678  W2        2320            0.0000000000
      6960      2320  TIP3      H2             10.2227994676       11.1404551950      -15.2398099678  W2        2320            0.0000000000
      6961      2321  TIP3      OH2            13.1256594676       10.5606351950       -0.1607799678  W2        2321            0.0000000000
      6962      2321  TIP3      H1             13.8711394676       11.1490051950       -0.2803799678  W2        2321            0.0000000000
      6963      2321  TIP3      H2             12.3683394676       11.1426051950       -0.0974699678  W2        2321            0.0000000000
      6964      2322  TIP3      OH2             1.5681794676        7.8754251950        2.4432800322  W2        2322            0.0000000000
      6965      2322  TIP3      H1              1.9762994676        7.0180851950        2.3223400322  W2        2322            0.0000000000
      6966      2322  TIP3      H2              1.3079394676        7.8895551950        3.3643100322  W2        2322            0.0000000000
      6967      2323  TIP3      OH2             6.2262794676        8.9912851950      -12.5383899678  W2        2323            0.0000000000
      6968      2323  TIP3      H1              5.7664794676        8.5071151950      -11.8525399678  W2        2323            0.0000000000
      6969      2323  TIP3      H2              6.4811494676        8.3228251950      -13.1743399678  W2        2323            0.0000000000
      6970      2324  TIP3      OH2             5.5152094676        6.8839951950       -0.1824299678  W2        2324            0.0000000000
      6971      2324  TIP3      H1              4.8968194676        7.5586551950        0.0980400322  W2        2324            0.0000000000
      6972      2324  TIP3      H2              5.8593294676        7.2053851950       -1.0158099678  W2        2324            0.0000000000
      6973      2325  TIP3      OH2             7.2973194676        7.2344651950      -14.2760699678  W2        2325            0.0000000000
      6974      2325  TIP3      H1              7.1168194676        7.0795851950      -15.2032399678  W2        2325            0.0000000000
      6975      2325  TIP3      H2              8.2473694676        7.3423351950      -14.2312799678  W2        2325            0.0000000000
      6976      2326  TIP3      OH2            10.5350294676        9.3555251950        3.0950500322  W2        2326            0.0000000000
      6977      2326  TIP3      H1             11.4881494676        9.4394351950        3.0676500322  W2        2326            0.0000000000
      6978      2326  TIP3      H2             10.3744894676        8.6437051950        3.7145400322  W2        2326            0.0000000000
      6979      2327  TIP3      OH2            16.6871494676        9.5888851950      -14.8302599678  W2        2327            0.0000000000
      6980      2327  TIP3      H1             16.4136294676        9.1644351950      -15.6434299678  W2        2327            0.0000000000
      6981      2327  TIP3      H2             16.7265594676       10.5203351950      -15.0472199678  W2        2327            0.0000000000
      6982      2328  TIP3      OH2             5.8545794676        4.2390751950        0.8998800322  W2        2328            0.0000000000
      6983      2328  TIP3      H1              6.0046694676        3.5102051950        0.2978500322  W2        2328            0.0000000000
      6984      2328  TIP3      H2              5.8568194676        5.0162451950        0.3411000322  W2        2328            0.0000000000
      6985      2329  TIP3      OH2             6.2671494676        2.6086551950       -1.6073799678  W2        2329            0.0000000000
      6986      2329  TIP3      H1              6.8028994676        3.0603251950       -2.2594499678  W2        2329            0.0000000000
      6987      2329  TIP3      H2              5.4151094676        2.5006351950       -2.0299699678  W2        2329            0.0000000000
      6988      2330  TIP3      OH2             7.8489894676        8.0482751950       -1.3678599678  W2        2330            0.0000000000
      6989      2330  TIP3      H1              8.5994694676        7.8920251950       -1.9410799678  W2        2330            0.0000000000
      6990      2330  TIP3      H2              7.5098194676        8.8999351950       -1.6433099678  W2        2330            0.0000000000
      6991      2331  TIP3      OH2            12.2646094676        5.8634551950        3.6606700322  W2        2331            0.0000000000
      6992      2331  TIP3      H1             12.4567394676        4.9323951950        3.5491200322  W2        2331            0.0000000000
      6993      2331  TIP3      H2             13.1222394676        6.2884051950        3.6502100322  W2        2331            0.0000000000
      6994      2332  TIP3      OH2            13.5813294676        8.6519751950        1.7379400322  W2        2332            0.0000000000
      6995      2332  TIP3      H1             13.2998294676        9.3614351950        1.1603200322  W2        2332            0.0000000000
      6996      2332  TIP3      H2             14.5237594676        8.5792751950        1.5870600322  W2        2332            0.0000000000
      6997      2333  TIP3      OH2             4.3332094676        5.4374251950        2.8114400322  W2        2333            0.0000000000
      6998      2333  TIP3      H1              3.5661094676        4.9049051950        2.6012000322  W2        2333            0.0000000000
      6999      2333  TIP3      H2              5.0121094676        5.1274651950        2.2120700322  W2        2333            0.0000000000
      7000      2334  TIP3      OH2             7.0726994676        0.0652251950       -1.1760199678  W2        2334            0.0000000000
      7001      2334  TIP3      H1              6.9746594676        1.0115451950       -1.2813999678  W2        2334            0.0000000000
      7002      2334  TIP3      H2              6.3303194676       -0.3073948050       -1.6516699678  W2        2334            0.0000000000
      7003      2335  TIP3      OH2             8.3367494676        4.3867651950        2.3878200322  W2        2335            0.0000000000
      7004      2335  TIP3      H1              8.1012894676        4.1674351950        3.2893100322  W2        2335            0.0000000000
      7005      2335  TIP3      H2              7.5534394676        4.1798851950        1.8780700322  W2        2335            0.0000000000
      7006      2336  TIP3      OH2            11.0524094676        3.5141151950        1.4631700322  W2        2336            0.0000000000
      7007      2336  TIP3      H1             10.1049494676        3.5460851950        1.5955000322  W2        2336            0.0000000000
      7008      2336  TIP3      H2             11.3650794676        2.8888251950        2.1169900322  W2        2336            0.0000000000
      7009      2337  TIP3      OH2            12.6865594676        2.1482251950        3.4683600322  W2        2337            0.0000000000
      7010      2337  TIP3      H1             12.5897394676        1.1959551950        3.4625500322  W2        2337            0.0000000000
      7011      2337  TIP3      H2             12.3648694676        2.4169051950        4.3289100322  W2        2337            0.0000000000
      7012      2338  TIP3      OH2             2.5134894676        3.3578051950        2.5159100322  W2        2338            0.0000000000
      7013      2338  TIP3      H1              2.7252294676        2.6514151950        1.9056600322  W2        2338            0.0000000000
      7014      2338  TIP3      H2              2.4022394676        2.9204051950        3.3600300322  W2        2338            0.0000000000
      7015      2339  TIP3      OH2             7.2945094676       -0.6410348050        1.4952600322  W2        2339            0.0000000000
      7016      2339  TIP3      H1              8.0063494676       -1.2808148050        1.4811700322  W2        2339            0.0000000000
      7017      2339  TIP3      H2              7.1935494676       -0.3742048050        0.5815700322  W2        2339            0.0000000000
      7018      2340  TIP3      OH2             7.6482594676        1.0418051950        3.5488900322  W2        2340            0.0000000000
      7019      2340  TIP3      H1              7.5164794676        0.5661851950        2.7287400322  W2        2340            0.0000000000
      7020      2340  TIP3      H2              7.0489994676        1.7861651950        3.4936000322  W2        2340            0.0000000000
      7021      2341  TIP3      OH2             7.1944894676       17.9248351950      -13.2747099678  W2        2341            0.0000000000
      7022      2341  TIP3      H1              8.1275594676       18.0827051950      -13.1308699678  W2        2341            0.0000000000
      7023      2341  TIP3      H2              6.9303694676       18.6001351950      -13.8995599678  W2        2341            0.0000000000
      7024      2342  TIP3      OH2             0.7629794676       12.5612151950      -13.7918999678  W2        2342            0.0000000000
      7025      2342  TIP3      H1              1.6768994676       12.6401051950      -13.5185099678  W2        2342            0.0000000000
      7026      2342  TIP3      H2              0.7702894676       11.8741751950      -14.4583399678  W2        2342            0.0000000000
      7027      2343  TIP3      OH2            -0.5879605324       17.9540651950       -8.7145099678  W2        2343            0.0000000000
      7028      2343  TIP3      H1             -1.2352505324       17.4922351950       -9.2473899678  W2        2343            0.0000000000
      7029      2343  TIP3      H2             -0.2335005324       17.2823951950       -8.1318899678  W2        2343            0.0000000000
      7030      2344  TIP3      OH2             0.2819594676       16.0347651950       -6.9098899678  W2        2344            0.0000000000
      7031      2344  TIP3      H1             -0.0523605324       15.1544951950       -6.7378699678  W2        2344            0.0000000000
      7032      2344  TIP3      H2              0.5041994676       16.3802651950       -6.0453299678  W2        2344            0.0000000000
      7033      2345  TIP3      OH2            17.8304394676       16.8444051950       -3.9294099678  W2        2345            0.0000000000
      7034      2345  TIP3      H1             17.8091094676       17.0292451950       -2.9904699678  W2        2345            0.0000000000
      7035      2345  TIP3      H2             18.5210594676       17.4128051950       -4.2702699678  W2        2345            0.0000000000
      7036      2346  TIP3      OH2            17.3937294676       16.4115151950       -1.0074999678  W2        2346            0.0000000000
      7037      2346  TIP3      H1             16.9065994676       15.6759251950       -1.3787599678  W2        2346            0.0000000000
      7038      2346  TIP3      H2             17.9429994676       16.0179051950       -0.3295599678  W2        2346            0.0000000000
      7039      2347  TIP3      OH2            15.8444594676       12.2013251950        3.6305300322  W2        2347            0.0000000000
      7040      2347  TIP3      H1             14.9785694676       12.0962951950        4.0247600322  W2        2347            0.0000000000
      7041      2347  TIP3      H2             16.2210494676       12.9596551950        4.0770000322  W2        2347            0.0000000000
      7042      2348  TIP3      OH2            17.1454294676       10.4576951950      -10.8552199678  W2        2348            0.0000000000
      7043      2348  TIP3      H1             17.9955694676       10.8787851950      -10.7280599678  W2        2348            0.0000000000
      7044      2348  TIP3      H2             17.1509394676        9.7177051950      -10.2480799678  W2        2348            0.0000000000
      7045      2349  TIP3      OH2            17.5399894676        8.5114351950       -9.0316499678  W2        2349            0.0000000000
      7046      2349  TIP3      H1             16.8134494676        8.0316951950       -8.6338899678  W2        2349            0.0000000000
      7047      2349  TIP3      H2             18.1213194676        8.7169051950       -8.2994899678  W2        2349            0.0000000000
      7048      2350  TIP3      OH2            17.2991094676       11.2961851950       -4.0838899678  W2        2350            0.0000000000
      7049      2350  TIP3      H1             18.1325294676       10.9181851950       -4.3645299678  W2        2350            0.0000000000
      7050      2350  TIP3      H2             17.4111394676       12.2393051950       -4.2029799678  W2        2350            0.0000000000
      7051      2351  TIP3      OH2            15.7853394676       14.1739351950       -1.7770499678  W2        2351            0.0000000000
      7052      2351  TIP3      H1             15.1378694676       14.4990851950       -1.1515299678  W2        2351            0.0000000000
      7053      2351  TIP3      H2             15.2677394676       13.7337051950       -2.4512199678  W2        2351            0.0000000000
      7054      2352  TIP3      OH2            17.8082994676        8.4122851950      -12.6405199678  W2        2352            0.0000000000
      7055      2352  TIP3      H1             17.2864094676        8.7686951950      -13.3594299678  W2        2352            0.0000000000
      7056      2352  TIP3      H2             17.7752194676        9.0870651950      -11.9624299678  W2        2352            0.0000000000
      7057      2353  TIP3      OH2            16.1571994676        5.6518451950      -14.0898099678  W2        2353            0.0000000000
      7058      2353  TIP3      H1             16.2536394676        6.3185451950      -14.7698399678  W2        2353            0.0000000000
      7059      2353  TIP3      H2             16.0171594676        4.8364751950      -14.5712599678  W2        2353            0.0000000000
      7060      2354  TIP3      OH2            15.3266694676        7.0320851950       -8.4687799678  W2        2354            0.0000000000
      7061      2354  TIP3      H1             15.1765494676        6.0869451950       -8.4889999678  W2        2354            0.0000000000
      7062      2354  TIP3      H2             14.9731194676        7.3132251950       -7.6248699678  W2        2354            0.0000000000
      7063      2355  TIP3      OH2             0.3619094676        9.1103051950       -4.4583999678  W2        2355            0.0000000000
      7064      2355  TIP3      H1              0.5461994676        9.0284751950       -5.3941099678  W2        2355            0.0000000000
      7065      2355  TIP3      H2              1.2111994676        8.9860051950       -4.0347599678  W2        2355            0.0000000000
      7066      2356  TIP3      OH2            16.1829594676        9.0024151950        1.1700500322  W2        2356            0.0000000000
      7067      2356  TIP3      H1             16.7656894676        8.2676451950        1.3617700322  W2        2356            0.0000000000
      7068      2356  TIP3      H2             16.7468894676        9.7744451950        1.2166300322  W2        2356            0.0000000000
      7069      2357  TIP3      OH2            17.6796694676        6.9049951950        1.8545900322  W2        2357            0.0000000000
      7070      2357  TIP3      H1             16.8163394676        6.5262051950        1.6890600322  W2        2357            0.0000000000
      7071      2357  TIP3      H2             18.2840394676        6.1664751950        1.7801700322  W2        2357            0.0000000000
      7072      2358  TIP3      OH2            15.4045794676        3.0598251950      -14.9722599678  W2        2358            0.0000000000
      7073      2358  TIP3      H1             16.0151594676        2.6885051950      -14.3354399678  W2        2358            0.0000000000
      7074      2358  TIP3      H2             14.5677294676        2.6385151950      -14.7762599678  W2        2358            0.0000000000
      7075      2359  TIP3      OH2            15.0371494676        4.6146651950      -10.0062699678  W2        2359            0.0000000000
      7076      2359  TIP3      H1             15.3168594676        3.7077051950       -9.8820999678  W2        2359            0.0000000000
      7077      2359  TIP3      H2             15.7963194676        5.0488151950      -10.3953499678  W2        2359            0.0000000000
      7078      2360  TIP3      OH2            15.6489794676        5.1964051950       -4.5703799678  W2        2360            0.0000000000
      7079      2360  TIP3      H1             16.5817794676        5.4083951950       -4.6047799678  W2        2360            0.0000000000
      7080      2360  TIP3      H2             15.4137294676        5.2976151950       -3.6480799678  W2        2360            0.0000000000
      7081      2361  TIP3      OH2            15.6781694676        5.9329351950       -1.7944399678  W2        2361            0.0000000000
      7082      2361  TIP3      H1             14.8352994676        6.2009751950       -1.4284599678  W2        2361            0.0000000000
      7083      2361  TIP3      H2             16.1205994676        6.7551251950       -2.0053299678  W2        2361            0.0000000000
      7084      2362  TIP3      OH2            -0.0406105324        4.3808051950        1.6824800322  W2        2362            0.0000000000
      7085      2362  TIP3      H1              0.8788794676        4.2586351950        1.9187900322  W2        2362            0.0000000000
      7086      2362  TIP3      H2             -0.4901605324        3.6307751950        2.0718300322  W2        2362            0.0000000000
      7087      2363  TIP3      OH2            17.9613294676       -0.0870448050        3.5590600322  W2        2363            0.0000000000
      7088      2363  TIP3      H1             18.3110294676       -0.7406948050        2.9535300322  W2        2363            0.0000000000
      7089      2363  TIP3      H2             18.1082794676        0.7503651950        3.1193200322  W2        2363            0.0000000000
      7090      2364  TIP3      OH2            15.6506294676        1.8775951950       -9.9580699678  W2        2364            0.0000000000
      7091      2364  TIP3      H1             15.8331294676        1.4287451950       -9.1325699678  W2        2364            0.0000000000
      7092      2364  TIP3      H2             15.0509194676        1.2930351950      -10.4216099678  W2        2364            0.0000000000
      7093      2365  TIP3      OH2             1.1806394676        2.6929651950       -5.4262299678  W2        2365            0.0000000000
      7094      2365  TIP3      H1              1.6257994676        1.9012151950       -5.1242599678  W2        2365            0.0000000000
      7095      2365  TIP3      H2              1.6469394676        3.4094851950       -4.9956699678  W2        2365            0.0000000000
      7096      2366  TIP3      OH2            -0.5153305324        5.6922651950       -4.3572099678  W2        2366            0.0000000000
      7097      2366  TIP3      H1             -0.0233505324        5.4713151950       -5.1480099678  W2        2366            0.0000000000
      7098      2366  TIP3      H2             -0.1532405324        6.5326051950       -4.0762599678  W2        2366            0.0000000000
      7099      2367  TIP3      OH2            17.4810494676        2.0224151950        1.9081900322  W2        2367            0.0000000000
      7100      2367  TIP3      H1             16.5636194676        2.2931251950        1.8725400322  W2        2367            0.0000000000
      7101      2367  TIP3      H2             17.6039894676        1.4872551950        1.1241600322  W2        2367            0.0000000000
      7102      2368  TIP3      OH2            17.5172494676        1.9454051950      -13.4300399678  W2        2368            0.0000000000
      7103      2368  TIP3      H1             17.9295094676        1.2239751950      -13.9052399678  W2        2368            0.0000000000
      7104      2368  TIP3      H2             18.1988994676        2.6148651950      -13.3716099678  W2        2368            0.0000000000
      7105      2369  TIP3      OH2            -0.2016805324        1.9501751950      -10.3029699678  W2        2369            0.0000000000
      7106      2369  TIP3      H1             -1.1268405324        2.1588351950      -10.4324199678  W2        2369            0.0000000000
      7107      2369  TIP3      H2              0.2523094676        2.4342551950      -10.9927399678  W2        2369            0.0000000000
      7108      2370  TIP3      OH2            14.5690394676       16.9343451950       -8.3572299678  W2        2370            0.0000000000
      7109      2370  TIP3      H1             15.2213294676       16.5865551950       -8.9653199678  W2        2370            0.0000000000
      7110      2370  TIP3      H2             15.0794194676       17.4226651950       -7.7112599678  W2        2370            0.0000000000
      7111      2371  TIP3      OH2            -0.2381405324        0.6880751950       -1.9587199678  W2        2371            0.0000000000
      7112      2371  TIP3      H1             -0.9030905324        0.4421051950       -1.3156299678  W2        2371            0.0000000000
      7113      2371  TIP3      H2             -0.6810105324        1.3101151950       -2.5359199678  W2        2371            0.0000000000
      7114      2372  TIP3      OH2             1.9537894676       13.8634851950        2.1858600322  W2        2372            0.0000000000
      7115      2372  TIP3      H1              1.1330394676       14.0381351950        1.7253300322  W2        2372            0.0000000000
      7116      2372  TIP3      H2              1.7015694676       13.7899551950        3.1063000322  W2        2372            0.0000000000
      7117      2373  TIP3      OH2             4.9080794676       14.8376051950       -1.5557399678  W2        2373            0.0000000000
      7118      2373  TIP3      H1              4.4831894676       15.6474551950       -1.8382799678  W2        2373            0.0000000000
      7119      2373  TIP3      H2              5.8123594676       14.9230151950       -1.8577599678  W2        2373            0.0000000000
      7120      2374  TIP3      OH2             9.2192194676       16.2366051950        1.4036300322  W2        2374            0.0000000000
      7121      2374  TIP3      H1              9.4039694676       15.9032151950        2.2816600322  W2        2374            0.0000000000
      7122      2374  TIP3      H2             10.0656694676       16.5464651950        1.0815500322  W2        2374            0.0000000000
      7123      2375  TIP3      OH2            11.5642594676       17.5224951950        0.6477700322  W2        2375            0.0000000000
      7124      2375  TIP3      H1             12.2411494676       16.8897251950        0.4076900322  W2        2375            0.0000000000
      7125      2375  TIP3      H2             11.8861394676       17.9235451950        1.4551000322  W2        2375            0.0000000000
      7126      2376  TIP3      OH2            16.4816394676        0.1120451950       -0.2727299678  W2        2376            0.0000000000
      7127      2376  TIP3      H1             15.6689894676        0.4370751950       -0.6602599678  W2        2376            0.0000000000
      7128      2376  TIP3      H2             16.7144894676       -0.6481048050       -0.8058199678  W2        2376            0.0000000000
      7129      2377  TIP3      OH2             2.3097494676       18.0939951950       -1.5082099678  W2        2377            0.0000000000
      7130      2377  TIP3      H1              1.5893894676       18.5340951950       -1.9594399678  W2        2377            0.0000000000
      7131      2377  TIP3      H2              1.9441494676       17.8434651950       -0.6598099678  W2        2377            0.0000000000
      7132      2378  TIP3      OH2             4.7770094676       17.6943851950       -2.4784899678  W2        2378            0.0000000000
      7133      2378  TIP3      H1              3.9122294676       17.7662351950       -2.0744799678  W2        2378            0.0000000000
      7134      2378  TIP3      H2              4.7219094676       18.2411151950       -3.2622399678  W2        2378            0.0000000000
      7135      2379  TIP3      OH2             9.4875694676       17.5822751950       -3.3028899678  W2        2379            0.0000000000
      7136      2379  TIP3      H1              9.0309694676       18.1112451950       -3.9570499678  W2        2379            0.0000000000
      7137      2379  TIP3      H2              9.6503694676       18.1854151950       -2.5776599678  W2        2379            0.0000000000
      7138      2380  TIP3      OH2            11.8151994676       16.4602351950       -2.3578599678  W2        2380            0.0000000000
      7139      2380  TIP3      H1             10.9105694676       16.6252551950       -2.6236499678  W2        2380            0.0000000000
      7140      2380  TIP3      H2             12.2440594676       17.3134551950       -2.4235199678  W2        2380            0.0000000000
      7141      2381  TIP3      OH2            14.4193894676       18.0301451950       -2.0630799678  W2        2381            0.0000000000
      7142      2381  TIP3      H1             14.2375894676       18.9460351950       -2.2735899678  W2        2381            0.0000000000
      7143      2381  TIP3      H2             14.5961694676       17.6198551950       -2.9096199678  W2        2381            0.0000000000
      7144      2382  TIP3      OH2             1.7245594676       16.7172451950       -4.5980299678  W2        2382            0.0000000000
      7145      2382  TIP3      H1              1.7061594676       16.2917551950       -3.7407999678  W2        2382            0.0000000000
      7146      2382  TIP3      H2              2.5293494676       16.3987451950       -5.0068099678  W2        2382            0.0000000000
      7147      2383  TIP3      OH2             3.8658694676       15.4271151950       -5.9430399678  W2        2383            0.0000000000
      7148      2383  TIP3      H1              3.6469394676       14.5108551950       -5.7734399678  W2        2383            0.0000000000
      7149      2383  TIP3      H2              4.6900894676       15.5671551950       -5.4768999678  W2        2383            0.0000000000
      7150      2384  TIP3      OH2             6.4031194676       15.8970451950       -5.0942399678  W2        2384            0.0000000000
      7151      2384  TIP3      H1              6.6156894676       15.0089451950       -5.3811499678  W2        2384            0.0000000000
      7152      2384  TIP3      H2              6.4676294676       15.8628151950       -4.1398399678  W2        2384            0.0000000000
      7153      2385  TIP3      OH2             9.9114894676        1.5611051950       -5.9499099678  W2        2385            0.0000000000
      7154      2385  TIP3      H1              9.2371694676        0.9316651950       -5.6943299678  W2        2385            0.0000000000
      7155      2385  TIP3      H2             10.4754094676        1.0769951950       -6.5531199678  W2        2385            0.0000000000
      7156      2386  TIP3      OH2            15.0542094676       -0.3314948050       -5.8371999678  W2        2386            0.0000000000
      7157      2386  TIP3      H1             15.6579694676        0.2160451950       -6.3390999678  W2        2386            0.0000000000
      7158      2386  TIP3      H2             14.1844094676       -0.0124548050       -6.0777899678  W2        2386            0.0000000000
      7159      2387  TIP3      OH2            16.7812494676        0.8073751950       -7.5041099678  W2        2387            0.0000000000
      7160      2387  TIP3      H1             17.3929994676        0.2929451950       -8.0307499678  W2        2387            0.0000000000
      7161      2387  TIP3      H2             17.1635894676        1.6845851950       -7.4806699678  W2        2387            0.0000000000
      7162      2388  TIP3      OH2             2.2382394676        0.1951351950       -8.1279199678  W2        2388            0.0000000000
      7163      2388  TIP3      H1              1.4612194676       -0.0393748050       -8.6353299678  W2        2388            0.0000000000
      7164      2388  TIP3      H2              2.7685994676       -0.6016548050       -8.1191199678  W2        2388            0.0000000000
      7165      2389  TIP3      OH2             1.0745794676       -0.0070548050      -12.3243099678  W2        2389            0.0000000000
      7166      2389  TIP3      H1              1.5136494676        0.6039951950      -12.9159599678  W2        2389            0.0000000000
      7167      2389  TIP3      H2              0.4408194676        0.5313551950      -11.8503099678  W2        2389            0.0000000000
      7168      2390  TIP3      OH2             6.8174994676        0.1218451950       -8.3146099678  W2        2390            0.0000000000
      7169      2390  TIP3      H1              7.6918394676        0.5102751950       -8.3441799678  W2        2390            0.0000000000
      7170      2390  TIP3      H2              6.6815794676       -0.0933748050       -7.3918899678  W2        2390            0.0000000000
      7171      2391  TIP3      OH2            12.3743394676        0.1518251950       -6.6654399678  W2        2391            0.0000000000
      7172      2391  TIP3      H1             12.4504994676        0.2469851950       -7.6148399678  W2        2391            0.0000000000
      7173      2391  TIP3      H2             12.0992594676       -0.7558848050       -6.5365299678  W2        2391            0.0000000000
      7174      2392  TIP3      OH2            13.7275994676        0.1776051950      -10.9729399678  W2        2392            0.0000000000
      7175      2392  TIP3      H1             13.0247094676        0.7925251950      -11.1827999678  W2        2392            0.0000000000
      7176      2392  TIP3      H2             13.2827394676       -0.6597248050      -10.8418499678  W2        2392            0.0000000000
      7177      2393  TIP3      OH2             0.9755294676       15.9411651950      -11.4267999678  W2        2393            0.0000000000
      7178      2393  TIP3      H1              0.2905194676       15.9030551950      -12.0942899678  W2        2393            0.0000000000
      7179      2393  TIP3      H2              0.9792494676       16.8539251950      -11.1385899678  W2        2393            0.0000000000
      7180      2394  TIP3      OH2             2.9354894676        1.9090951950      -13.8818999678  W2        2394            0.0000000000
      7181      2394  TIP3      H1              3.4268294676        1.2793351950      -14.4093499678  W2        2394            0.0000000000
      7182      2394  TIP3      H2              3.5591194676        2.2050351950      -13.2187799678  W2        2394            0.0000000000
      7183      2395  TIP3      OH2             7.9614994676        2.2022451950      -11.4248499678  W2        2395            0.0000000000
      7184      2395  TIP3      H1              8.1396294676        1.5555651950      -10.7419899678  W2        2395            0.0000000000
      7185      2395  TIP3      H2              7.9081194676        3.0360151950      -10.9577399678  W2        2395            0.0000000000
      7186      2396  TIP3      OH2             9.8398794676       17.1506551950      -13.0291799678  W2        2396            0.0000000000
      7187      2396  TIP3      H1             10.7058994676       17.5173951950      -13.2073599678  W2        2396            0.0000000000
      7188      2396  TIP3      H2              9.5931594676       16.7114551950      -13.8430999678  W2        2396            0.0000000000
      7189      2397  TIP3      OH2            16.5488394676       16.7136851950      -10.3500699678  W2        2397            0.0000000000
      7190      2397  TIP3      H1             16.3545494676       15.9658951950      -10.9151099678  W2        2397            0.0000000000
      7191      2397  TIP3      H2             16.5098494676       17.4716951950      -10.9332799678  W2        2397            0.0000000000
      7192      2398  TIP3      OH2             2.1960394676        0.7093251950        1.3897000322  W2        2398            0.0000000000
      7193      2398  TIP3      H1              1.8298594676       -0.0564148050        1.8321700322  W2        2398            0.0000000000
      7194      2398  TIP3      H2              3.1088894676        0.7383451950        1.6762100322  W2        2398            0.0000000000
      7195      2399  TIP3      OH2             4.1691194676        0.0597651950        2.9254100322  W2        2399            0.0000000000
      7196      2399  TIP3      H1              5.0674794676       -0.2142148050        2.7407500322  W2        2399            0.0000000000
      7197      2399  TIP3      H2              3.7824294676       -0.6826348050        3.3896700322  W2        2399            0.0000000000
      7198      2400  TIP3      OH2             2.7936494676       16.8612451950      -14.4015899678  W2        2400            0.0000000000
      7199      2400  TIP3      H1              2.5261094676       17.1475351950      -13.5282799678  W2        2400            0.0000000000
      7200      2400  TIP3      H2              3.5649094676       16.3151651950      -14.2493399678  W2        2400            0.0000000000
      7201      2401  TIP3      OH2            12.5903494676       -0.6077048050        3.1076900322  W2        2401            0.0000000000
      7202      2401  TIP3      H1             12.6670694676       -1.0336348050        3.9614600322  W2        2401            0.0000000000
      7203      2401  TIP3      H2             13.4840094676       -0.5942348050        2.7650400322  W2        2401            0.0000000000
      7204      2402  TIP3      OH2            15.7664594676       15.4649251950        1.8001100322  W2        2402            0.0000000000
      7205      2402  TIP3      H1             14.9846494676       15.2787251950        1.2801700322  W2        2402            0.0000000000
      7206      2402  TIP3      H2             15.6944494676       16.3943551950        2.0173600322  W2        2402            0.0000000000
      7207      2403  TIP3      OH2            30.1724994676        9.3513651950       -8.1691699678  W2        2403            0.0000000000
      7208      2403  TIP3      H1             30.2616094676       10.2951851950       -8.3014599678  W2        2403            0.0000000000
      7209      2403  TIP3      H2             29.5342594676        9.0760051950       -8.8272299678  W2        2403            0.0000000000
      7210      2404  TIP3      OH2            29.1056294676        8.6064351950       -4.7503499678  W2        2404            0.0000000000
      7211      2404  TIP3      H1             29.0673794676        7.9600651950       -4.0453899678  W2        2404            0.0000000000
      7212      2404  TIP3      H2             28.7832794676        8.1398751950       -5.5214799678  W2        2404            0.0000000000
      7213      2405  TIP3      OH2            21.4741294676        8.2206451950       -3.1573599678  W2        2405            0.0000000000
      7214      2405  TIP3      H1             21.5153394676        7.5949751950       -2.4341199678  W2        2405            0.0000000000
      7215      2405  TIP3      H2             22.1768994676        8.8445051950       -2.9753199678  W2        2405            0.0000000000
      7216      2406  TIP3      OH2            32.8116494676       11.5454751950       -6.4488399678  W2        2406            0.0000000000
      7217      2406  TIP3      H1             32.3709194676       10.8250751950       -5.9982799678  W2        2406            0.0000000000
      7218      2406  TIP3      H2             32.7986194676       12.2661951950       -5.8190699678  W2        2406            0.0000000000
      7219      2407  TIP3      OH2            22.3974394676       12.6705351950       -4.6224499678  W2        2407            0.0000000000
      7220      2407  TIP3      H1             22.0279594676       11.8685851950       -4.9920199678  W2        2407            0.0000000000
      7221      2407  TIP3      H2             23.3385494676       12.5020251950       -4.5761099678  W2        2407            0.0000000000
      7222      2408  TIP3      OH2            19.0074894676        6.3307951950       -9.2295699678  W2        2408            0.0000000000
      7223      2408  TIP3      H1             18.5598294676        7.1766651950       -9.2479199678  W2        2408            0.0000000000
      7224      2408  TIP3      H2             18.4466094676        5.7512151950       -9.7450599678  W2        2408            0.0000000000
      7225      2409  TIP3      OH2            19.7180994676        8.4927551950       -7.1037699678  W2        2409            0.0000000000
      7226      2409  TIP3      H1             19.9314494676        7.7229151950       -6.5764699678  W2        2409            0.0000000000
      7227      2409  TIP3      H2             20.4558594676        8.5824251950       -7.7070099678  W2        2409            0.0000000000
      7228      2410  TIP3      OH2            29.9231994676       16.6496451950       -6.2367999678  W2        2410            0.0000000000
      7229      2410  TIP3      H1             30.5428394676       15.9731151950       -6.5098799678  W2        2410            0.0000000000
      7230      2410  TIP3      H2             29.7149394676       16.4317251950       -5.3283099678  W2        2410            0.0000000000
      7231      2411  TIP3      OH2            27.4950694676       11.0385751950       -4.3442499678  W2        2411            0.0000000000
      7232      2411  TIP3      H1             27.7988594676       10.3527151950       -4.9388399678  W2        2411            0.0000000000
      7233      2411  TIP3      H2             28.2164694676       11.1574451950       -3.7264499678  W2        2411            0.0000000000
      7234      2412  TIP3      OH2            36.1580494676        2.6401051950       -3.4836299678  W2        2412            0.0000000000
      7235      2412  TIP3      H1             36.2072694676        3.2502251950       -2.7477199678  W2        2412            0.0000000000
      7236      2412  TIP3      H2             36.5835594676        3.1011951950       -4.2065199678  W2        2412            0.0000000000
      7237      2413  TIP3      OH2            30.6357694676        5.4328151950       -4.0167699678  W2        2413            0.0000000000
      7238      2413  TIP3      H1             30.7783594676        4.4865151950       -3.9966099678  W2        2413            0.0000000000
      7239      2413  TIP3      H2             30.5296694676        5.6397951950       -4.9452799678  W2        2413            0.0000000000
      7240      2414  TIP3      OH2            23.7905994676        3.5344551950       -6.7442899678  W2        2414            0.0000000000
      7241      2414  TIP3      H1             23.8337094676        4.3943051950       -7.1626599678  W2        2414            0.0000000000
      7242      2414  TIP3      H2             23.3330094676        2.9819251950       -7.3779699678  W2        2414            0.0000000000
      7243      2415  TIP3      OH2            31.5128694676        3.6650151950       -8.3434599678  W2        2415            0.0000000000
      7244      2415  TIP3      H1             32.1592994676        3.3363351950       -7.7186999678  W2        2415            0.0000000000
      7245      2415  TIP3      H2             32.0228094676        4.1829151950       -8.9663199678  W2        2415            0.0000000000
      7246      2416  TIP3      OH2            20.4107494676        5.9310351950       -5.9821499678  W2        2416            0.0000000000
      7247      2416  TIP3      H1             21.0644094676        5.3812051950       -5.5501399678  W2        2416            0.0000000000
      7248      2416  TIP3      H2             20.4346794676        5.6569351950       -6.8989499678  W2        2416            0.0000000000
      7249      2417  TIP3      OH2            25.5671994676        7.4811651950       -6.7669999678  W2        2417            0.0000000000
      7250      2417  TIP3      H1             26.1832994676        6.9547051950       -6.2575999678  W2        2417            0.0000000000
      7251      2417  TIP3      H2             24.9810794676        6.8410351950       -7.1706399678  W2        2417            0.0000000000
      7252      2418  TIP3      OH2            36.5495094676        4.1180251950       -1.2476499678  W2        2418            0.0000000000
      7253      2418  TIP3      H1             35.8609694676        4.7760951950       -1.3429899678  W2        2418            0.0000000000
      7254      2418  TIP3      H2             36.5649694676        3.9208151950       -0.3111099678  W2        2418            0.0000000000
      7255      2419  TIP3      OH2            22.6007894676        2.4522951950       -2.6702099678  W2        2419            0.0000000000
      7256      2419  TIP3      H1             22.3819594676        2.9823551950       -3.4366099678  W2        2419            0.0000000000
      7257      2419  TIP3      H2             21.9328794676        2.6788451950       -2.0230699678  W2        2419            0.0000000000
      7258      2420  TIP3      OH2            29.9697694676       11.9524051950       -9.1262999678  W2        2420            0.0000000000
      7259      2420  TIP3      H1             29.6742794676       11.6296351950       -9.9776099678  W2        2420            0.0000000000
      7260      2420  TIP3      H2             29.6455494676       12.8520751950       -9.0850399678  W2        2420            0.0000000000
      7261      2421  TIP3      OH2            25.1699294676       10.1278651950       -2.3828399678  W2        2421            0.0000000000
      7262      2421  TIP3      H1             24.4298394676       10.7260151950       -2.2793199678  W2        2421            0.0000000000
      7263      2421  TIP3      H2             25.8838794676       10.6818251950       -2.6984799678  W2        2421            0.0000000000
      7264      2422  TIP3      OH2            33.2767094676        2.9559451950       -6.3628699678  W2        2422            0.0000000000
      7265      2422  TIP3      H1             33.0615094676        2.1902851950       -5.8302699678  W2        2422            0.0000000000
      7266      2422  TIP3      H2             33.9324494676        3.4284051950       -5.8500199678  W2        2422            0.0000000000
      7267      2423  TIP3      OH2            22.1945194676        4.3444751950       -4.7179899678  W2        2423            0.0000000000
      7268      2423  TIP3      H1             22.8081494676        4.9772351950       -4.3447499678  W2        2423            0.0000000000
      7269      2423  TIP3      H2             22.7065894676        3.8719751950       -5.3742999678  W2        2423            0.0000000000
      7270      2424  TIP3      OH2            23.5773594676       12.0921651950       -1.5956899678  W2        2424            0.0000000000
      7271      2424  TIP3      H1             23.5721194676       12.9715151950       -1.9737599678  W2        2424            0.0000000000
      7272      2424  TIP3      H2             22.7237694676       12.0085751950       -1.1706999678  W2        2424            0.0000000000
      7273      2425  TIP3      OH2            19.6984494676       11.7629551950      -10.8137599678  W2        2425            0.0000000000
      7274      2425  TIP3      H1             19.4265394676       11.9920551950      -11.7024699678  W2        2425            0.0000000000
      7275      2425  TIP3      H2             19.7440194676       12.6008351950      -10.3532299678  W2        2425            0.0000000000
      7276      2426  TIP3      OH2            33.3234194676       13.3845451950       -4.1009099678  W2        2426            0.0000000000
      7277      2426  TIP3      H1             32.3817894676       13.4429351950       -3.9392199678  W2        2426            0.0000000000
      7278      2426  TIP3      H2             33.6000294676       14.2905951950       -4.2379399678  W2        2426            0.0000000000
      7279      2427  TIP3      OH2            33.6241194676        1.6710751950       -2.6835199678  W2        2427            0.0000000000
      7280      2427  TIP3      H1             32.8880394676        2.2817851950       -2.7213899678  W2        2427            0.0000000000
      7281      2427  TIP3      H2             34.3075194676        2.0859751950       -3.2098799678  W2        2427            0.0000000000
      7282      2428  TIP3      OH2            26.6272594676       -0.2421948050       -5.2177199678  W2        2428            0.0000000000
      7283      2428  TIP3      H1             26.5096794676       -1.1905948050       -5.2718899678  W2        2428            0.0000000000
      7284      2428  TIP3      H2             25.7722694676        0.0904151950       -4.9446099678  W2        2428            0.0000000000
      7285      2429  TIP3      OH2            31.5755394676       15.1658951950       -7.4757499678  W2        2429            0.0000000000
      7286      2429  TIP3      H1             32.0007694676       14.4586851950       -7.9607899678  W2        2429            0.0000000000
      7287      2429  TIP3      H2             31.8925394676       15.9671651950       -7.8925299678  W2        2429            0.0000000000
      7288      2430  TIP3      OH2            32.7351894676       13.0667451950       -8.9670899678  W2        2430            0.0000000000
      7289      2430  TIP3      H1             32.4776694676       12.3767551950       -9.5784999678  W2        2430            0.0000000000
      7290      2430  TIP3      H2             32.8062694676       12.6238651950       -8.1214999678  W2        2430            0.0000000000
      7291      2431  TIP3      OH2            34.4212094676       11.6334151950       -0.4897399678  W2        2431            0.0000000000
      7292      2431  TIP3      H1             34.5608394676       11.0416651950       -1.2290399678  W2        2431            0.0000000000
      7293      2431  TIP3      H2             34.5884894676       12.5060051950       -0.8458599678  W2        2431            0.0000000000
      7294      2432  TIP3      OH2            28.8937494676        8.5953651950      -10.7171399678  W2        2432            0.0000000000
      7295      2432  TIP3      H1             28.1822994676        9.1303351950      -11.0690899678  W2        2432            0.0000000000
      7296      2432  TIP3      H2             29.5847094676        8.6505751950      -11.3772499678  W2        2432            0.0000000000
      7297      2433  TIP3      OH2            28.9476694676        7.0527951950      -13.6786399678  W2        2433            0.0000000000
      7298      2433  TIP3      H1             29.6486594676        7.0754851950      -13.0272399678  W2        2433            0.0000000000
      7299      2433  TIP3      H2             29.2499594676        6.4247651950      -14.3347099678  W2        2433            0.0000000000
      7300      2434  TIP3      OH2            36.2631394676        7.9732151950       -2.4236999678  W2        2434            0.0000000000
      7301      2434  TIP3      H1             35.6105494676        8.6677751950       -2.3346099678  W2        2434            0.0000000000
      7302      2434  TIP3      H2             36.7281694676        8.1833051950       -3.2335399678  W2        2434            0.0000000000
      7303      2435  TIP3      OH2            32.2995194676        8.8046951950       -9.7655499678  W2        2435            0.0000000000
      7304      2435  TIP3      H1             31.5676194676        9.0330651950       -9.1924899678  W2        2435            0.0000000000
      7305      2435  TIP3      H2             32.7467394676        8.0909651950       -9.3107999678  W2        2435            0.0000000000
      7306      2436  TIP3      OH2            32.1968694676        6.9789551950       -0.6978499678  W2        2436            0.0000000000
      7307      2436  TIP3      H1             32.2767794676        7.7423951950       -0.1259999678  W2        2436            0.0000000000
      7308      2436  TIP3      H2             31.5956394676        7.2581951950       -1.3883399678  W2        2436            0.0000000000
      7309      2437  TIP3      OH2            23.9448894676        9.4353151950       -7.8830499678  W2        2437            0.0000000000
      7310      2437  TIP3      H1             23.6144094676        9.0646551950       -8.7013499678  W2        2437            0.0000000000
      7311      2437  TIP3      H2             24.5332994676        8.7647151950       -7.5362199678  W2        2437            0.0000000000
      7312      2438  TIP3      OH2            25.3116394676       12.8633751950       -5.2018299678  W2        2438            0.0000000000
      7313      2438  TIP3      H1             25.2167694676       12.2846851950       -5.9583699678  W2        2438            0.0000000000
      7314      2438  TIP3      H2             26.0409994676       12.4919451950       -4.7055499678  W2        2438            0.0000000000
      7315      2439  TIP3      OH2            24.3114394676        8.2038751950       -4.2495499678  W2        2439            0.0000000000
      7316      2439  TIP3      H1             24.8766894676        8.3252951950       -5.0124299678  W2        2439            0.0000000000
      7317      2439  TIP3      H2             24.6303294676        8.8413751950       -3.6106999678  W2        2439            0.0000000000
      7318      2440  TIP3      OH2            30.6206594676       13.7070651950       -3.5154999678  W2        2440            0.0000000000
      7319      2440  TIP3      H1             30.3803194676       14.3693751950       -2.8675799678  W2        2440            0.0000000000
      7320      2440  TIP3      H2             30.4224794676       12.8725851950       -3.0905399678  W2        2440            0.0000000000
      7321      2441  TIP3      OH2            25.1915094676       12.6031451950        0.4676400322  W2        2441            0.0000000000
      7322      2441  TIP3      H1             24.8802594676       13.3854651950        0.9229600322  W2        2441            0.0000000000
      7323      2441  TIP3      H2             24.5415294676       12.4500551950       -0.2181599678  W2        2441            0.0000000000
      7324      2442  TIP3      OH2            31.1704694676        7.9669851950      -12.0804299678  W2        2442            0.0000000000
      7325      2442  TIP3      H1             31.7500194676        8.1170151950      -11.3335399678  W2        2442            0.0000000000
      7326      2442  TIP3      H2             31.5844694676        8.4377251950      -12.8037899678  W2        2442            0.0000000000
      7327      2443  TIP3      OH2            22.1114994676        8.8012551950       -0.3037899678  W2        2443            0.0000000000
      7328      2443  TIP3      H1             22.1818194676        9.4519351950        0.3947100322  W2        2443            0.0000000000
      7329      2443  TIP3      H2             21.2207194676        8.9040051950       -0.6386999678  W2        2443            0.0000000000
      7330      2444  TIP3      OH2            28.8969594676       14.7038351950       -8.6451199678  W2        2444            0.0000000000
      7331      2444  TIP3      H1             29.3707194676       14.9994651950       -7.8676999678  W2        2444            0.0000000000
      7332      2444  TIP3      H2             28.3338894676       15.4419951950       -8.8781599678  W2        2444            0.0000000000
      7333      2445  TIP3      OH2            23.4310994676       14.6746451950        1.2310200322  W2        2445            0.0000000000
      7334      2445  TIP3      H1             23.4386294676       14.5386151950        0.2835700322  W2        2445            0.0000000000
      7335      2445  TIP3      H2             22.5151394676       14.5574551950        1.4830200322  W2        2445            0.0000000000
      7336      2446  TIP3      OH2            34.8693094676       -0.2829748050      -12.2674599678  W2        2446            0.0000000000
      7337      2446  TIP3      H1             33.9693794676       -0.1440748050      -11.9723999678  W2        2446            0.0000000000
      7338      2446  TIP3      H2             35.1211494676        0.5484851950      -12.6692899678  W2        2446            0.0000000000
      7339      2447  TIP3      OH2            22.9351594676        8.5047451950      -10.2937699678  W2        2447            0.0000000000
      7340      2447  TIP3      H1             22.6432894676        9.2729151950      -10.7846399678  W2        2447            0.0000000000
      7341      2447  TIP3      H2             22.2606794676        7.8453651950      -10.4566299678  W2        2447            0.0000000000
      7342      2448  TIP3      OH2            36.0584494676       14.0832651950      -13.8910699678  W2        2448            0.0000000000
      7343      2448  TIP3      H1             36.1317994676       15.0222851950      -13.7205399678  W2        2448            0.0000000000
      7344      2448  TIP3      H2             36.9639594676       13.7781251950      -13.9473399678  W2        2448            0.0000000000
      7345      2449  TIP3      OH2            19.0281694676       10.8676651950       -1.4787899678  W2        2449            0.0000000000
      7346      2449  TIP3      H1             18.5270094676       10.8396051950       -2.2938199678  W2        2449            0.0000000000
      7347      2449  TIP3      H2             19.0335394676        9.9619851950       -1.1690599678  W2        2449            0.0000000000
      7348      2450  TIP3      OH2            18.7784394676       13.6480451950       -4.5947699678  W2        2450            0.0000000000
      7349      2450  TIP3      H1             19.7244994676       13.5037451950       -4.6138199678  W2        2450            0.0000000000
      7350      2450  TIP3      H2             18.6660694676       14.4323251950       -4.0576499678  W2        2450            0.0000000000
      7351      2451  TIP3      OH2            36.9762894676       14.3140151950        1.0876000322  W2        2451            0.0000000000
      7352      2451  TIP3      H1             36.9269694676       13.3588251950        1.0503600322  W2        2451            0.0000000000
      7353      2451  TIP3      H2             36.1495194676       14.5815451950        1.4889800322  W2        2451            0.0000000000
      7354      2452  TIP3      OH2            27.9546894676       13.8879351950       -0.0362599678  W2        2452            0.0000000000
      7355      2452  TIP3      H1             28.0421494676       14.7143951950        0.4386500322  W2        2452            0.0000000000
      7356      2452  TIP3      H2             27.0911994676       13.5583151950        0.2126700322  W2        2452            0.0000000000
      7357      2453  TIP3      OH2            28.3692694676       17.6603051950      -10.2301999678  W2        2453            0.0000000000
      7358      2453  TIP3      H1             28.2938694676       17.5390251950      -11.1766799678  W2        2453            0.0000000000
      7359      2453  TIP3      H2             28.4021394676       18.6095751950      -10.1117399678  W2        2453            0.0000000000
      7360      2454  TIP3      OH2            22.0226494676       16.4490051950       -8.4492999678  W2        2454            0.0000000000
      7361      2454  TIP3      H1             22.1746894676       16.1010451950       -7.5706499678  W2        2454            0.0000000000
      7362      2454  TIP3      H2             21.1716894676       16.0927351950       -8.7045799678  W2        2454            0.0000000000
      7363      2455  TIP3      OH2            31.4708694676       16.8143251950      -13.2279599678  W2        2455            0.0000000000
      7364      2455  TIP3      H1             31.8457094676       16.0699351950      -13.6986999678  W2        2455            0.0000000000
      7365      2455  TIP3      H2             31.4752394676       16.5443851950      -12.3096299678  W2        2455            0.0000000000
      7366      2456  TIP3      OH2            31.1396794676       16.7400351950      -10.4787399678  W2        2456            0.0000000000
      7367      2456  TIP3      H1             30.2046594676       16.8402251950      -10.3000399678  W2        2456            0.0000000000
      7368      2456  TIP3      H2             31.4198694676       16.0306351950       -9.9004199678  W2        2456            0.0000000000
      7369      2457  TIP3      OH2            34.1282694676        5.8072651950        1.5678200322  W2        2457            0.0000000000
      7370      2457  TIP3      H1             33.7209494676        6.2878251950        0.8471500322  W2        2457            0.0000000000
      7371      2457  TIP3      H2             34.1688394676        4.9018651950        1.2599000322  W2        2457            0.0000000000
      7372      2458  TIP3      OH2            21.2772194676       12.1912051950       -0.4355099678  W2        2458            0.0000000000
      7373      2458  TIP3      H1             21.4933494676       11.8297651950        0.4240700322  W2        2458            0.0000000000
      7374      2458  TIP3      H2             20.4216894676       11.8165851950       -0.6451599678  W2        2458            0.0000000000
      7375      2459  TIP3      OH2            23.8960194676        0.6612551950       -4.4400899678  W2        2459            0.0000000000
      7376      2459  TIP3      H1             23.0343894676        0.5740751950       -4.8477999678  W2        2459            0.0000000000
      7377      2459  TIP3      H2             23.8735894676        1.5172651950       -4.0123299678  W2        2459            0.0000000000
      7378      2460  TIP3      OH2            28.5587994676        0.3832951950       -1.0653899678  W2        2460            0.0000000000
      7379      2460  TIP3      H1             28.9791094676       -0.0319948050       -0.3123299678  W2        2460            0.0000000000
      7380      2460  TIP3      H2             27.6257594676        0.2046251950       -0.9481899678  W2        2460            0.0000000000
      7381      2461  TIP3      OH2            31.8852894676        4.1388151950       -0.2119399678  W2        2461            0.0000000000
      7382      2461  TIP3      H1             31.3712394676        4.0130351950        0.5856600322  W2        2461            0.0000000000
      7383      2461  TIP3      H2             31.7297594676        5.0511251950       -0.4563199678  W2        2461            0.0000000000
      7384      2462  TIP3      OH2            32.6477794676        8.9998151950      -14.4506399678  W2        2462            0.0000000000
      7385      2462  TIP3      H1             32.6898594676        8.7772051950      -15.3806399678  W2        2462            0.0000000000
      7386      2462  TIP3      H2             33.4969894676        9.3985251950      -14.2606499678  W2        2462            0.0000000000
      7387      2463  TIP3      OH2            28.2205294676        2.8756351950      -13.7803099678  W2        2463            0.0000000000
      7388      2463  TIP3      H1             27.9670094676        2.8947951950      -12.8574999678  W2        2463            0.0000000000
      7389      2463  TIP3      H2             27.9637394676        2.0041751950      -14.0816899678  W2        2463            0.0000000000
      7390      2464  TIP3      OH2            23.9870294676        5.6267051950       -3.3450699678  W2        2464            0.0000000000
      7391      2464  TIP3      H1             23.3452394676        5.5864351950       -2.6360599678  W2        2464            0.0000000000
      7392      2464  TIP3      H2             24.0242294676        6.5531751950       -3.5827699678  W2        2464            0.0000000000
      7393      2465  TIP3      OH2            23.9839394676        5.8477151950       -8.4330699678  W2        2465            0.0000000000
      7394      2465  TIP3      H1             23.0912294676        5.5073251950       -8.4916899678  W2        2465            0.0000000000
      7395      2465  TIP3      H2             24.4345994676        5.4708051950       -9.1887499678  W2        2465            0.0000000000
      7396      2466  TIP3      OH2            29.5194894676        6.2637451950       -9.6159899678  W2        2466            0.0000000000
      7397      2466  TIP3      H1             29.1105194676        7.0786051950       -9.9075099678  W2        2466            0.0000000000
      7398      2466  TIP3      H2             30.2401094676        6.1237551950      -10.2302799678  W2        2466            0.0000000000
      7399      2467  TIP3      OH2            28.6216494676        6.4393851950        1.8720800322  W2        2467            0.0000000000
      7400      2467  TIP3      H1             28.0590294676        5.7345451950        2.1928600322  W2        2467            0.0000000000
      7401      2467  TIP3      H2             29.4479894676        6.3185751950        2.3398400322  W2        2467            0.0000000000
      7402      2468  TIP3      OH2            30.5242594676        5.7097851950       -6.8020199678  W2        2468            0.0000000000
      7403      2468  TIP3      H1             30.3287094676        6.3154651950       -7.5169599678  W2        2468            0.0000000000
      7404      2468  TIP3      H2             30.7055194676        4.8763051950       -7.2363899678  W2        2468            0.0000000000
      7405      2469  TIP3      OH2            21.7370794676        5.9470551950       -1.4778699678  W2        2469            0.0000000000
      7406      2469  TIP3      H1             21.6990194676        6.3472151950       -0.6091599678  W2        2469            0.0000000000
      7407      2469  TIP3      H2             21.2461894676        5.1302951950       -1.3875799678  W2        2469            0.0000000000
      7408      2470  TIP3      OH2            25.1028194676        3.3212851950      -14.6792699678  W2        2470            0.0000000000
      7409      2470  TIP3      H1             24.6718894676        2.8762951950      -13.9495299678  W2        2470            0.0000000000
      7410      2470  TIP3      H2             24.3846894676        3.6929151950      -15.1915199678  W2        2470            0.0000000000
      7411      2471  TIP3      OH2            18.3451594676        3.0632351950       -7.6273999678  W2        2471            0.0000000000
      7412      2471  TIP3      H1             18.9759294676        3.0344451950       -6.9080099678  W2        2471            0.0000000000
      7413      2471  TIP3      H2             18.7945894676        2.6381051950       -8.3578099678  W2        2471            0.0000000000
      7414      2472  TIP3      OH2            19.6193694676        3.8094351950      -12.2033599678  W2        2472            0.0000000000
      7415      2472  TIP3      H1             20.0935394676        4.4004251950      -12.7882699678  W2        2472            0.0000000000
      7416      2472  TIP3      H2             18.9020094676        4.3397251950      -11.8563499678  W2        2472            0.0000000000
      7417      2473  TIP3      OH2            29.7881794676        7.3479151950       -2.1307799678  W2        2473            0.0000000000
      7418      2473  TIP3      H1             30.1116594676        6.7168851950       -2.7737299678  W2        2473            0.0000000000
      7419      2473  TIP3      H2             29.3481094676        6.8131351950       -1.4700399678  W2        2473            0.0000000000
      7420      2474  TIP3      OH2            26.5654694676        3.2754651950       -7.3466599678  W2        2474            0.0000000000
      7421      2474  TIP3      H1             25.6545794676        3.3321451950       -7.0580599678  W2        2474            0.0000000000
      7422      2474  TIP3      H2             27.0707594676        3.2150151950       -6.5359399678  W2        2474            0.0000000000
      7423      2475  TIP3      OH2            21.3938094676        4.9040951950       -8.5198999678  W2        2475            0.0000000000
      7424      2475  TIP3      H1             20.5046094676        5.0036451950       -8.8599399678  W2        2475            0.0000000000
      7425      2475  TIP3      H2             21.6902994676        4.0623951950       -8.8661099678  W2        2475            0.0000000000
      7426      2476  TIP3      OH2            25.0469894676        4.9043551950      -10.8634399678  W2        2476            0.0000000000
      7427      2476  TIP3      H1             25.9785394676        5.0333551950      -10.6851299678  W2        2476            0.0000000000
      7428      2476  TIP3      H2             24.8320194676        5.5737851950      -11.5129699678  W2        2476            0.0000000000
      7429      2477  TIP3      OH2            30.9706594676        2.5100951950       -4.0824799678  W2        2477            0.0000000000
      7430      2477  TIP3      H1             30.2938194676        2.6414051950       -3.4185099678  W2        2477            0.0000000000
      7431      2477  TIP3      H2             30.4851494676        2.3550451950       -4.8927099678  W2        2477            0.0000000000
      7432      2478  TIP3      OH2            23.7210094676        6.0985751950      -13.2968299678  W2        2478            0.0000000000
      7433      2478  TIP3      H1             23.1785194676        5.7189551950      -13.9880699678  W2        2478            0.0000000000
      7434      2478  TIP3      H2             24.5544994676        6.2930451950      -13.7254199678  W2        2478            0.0000000000
      7435      2479  TIP3      OH2            34.2581694676       18.1816351950        2.1942800322  W2        2479            0.0000000000
      7436      2479  TIP3      H1             34.4580394676       18.6058251950        1.3598100322  W2        2479            0.0000000000
      7437      2479  TIP3      H2             34.9135394676       18.5254551950        2.8013200322  W2        2479            0.0000000000
      7438      2480  TIP3      OH2            21.8561494676       10.6557651950        1.8023300322  W2        2480            0.0000000000
      7439      2480  TIP3      H1             22.5883894676       10.9103551950        2.3637800322  W2        2480            0.0000000000
      7440      2480  TIP3      H2             21.0760194676       10.8603051950        2.3178700322  W2        2480            0.0000000000
      7441      2481  TIP3      OH2            27.8854394676        6.0627651950       -5.4596999678  W2        2481            0.0000000000
      7442      2481  TIP3      H1             28.4497794676        5.5164251950       -6.0067399678  W2        2481            0.0000000000
      7443      2481  TIP3      H2             27.7377794676        5.5409551950       -4.6709399678  W2        2481            0.0000000000
      7444      2482  TIP3      OH2            22.8874094676        2.1993751950       -9.0412199678  W2        2482            0.0000000000
      7445      2482  TIP3      H1             22.5703594676        1.2969051950       -9.0766799678  W2        2482            0.0000000000
      7446      2482  TIP3      H2             23.6688194676        2.2011151950       -9.5940599678  W2        2482            0.0000000000
      7447      2483  TIP3      OH2            26.5120294676        4.4513751950       -3.0456599678  W2        2483            0.0000000000
      7448      2483  TIP3      H1             25.6765594676        4.9053251950       -2.9354199678  W2        2483            0.0000000000
      7449      2483  TIP3      H2             27.0360894676        4.7272251950       -2.2936699678  W2        2483            0.0000000000
      7450      2484  TIP3      OH2            27.0562894676       10.6641451950      -11.3610199678  W2        2484            0.0000000000
      7451      2484  TIP3      H1             26.3113894676       10.1566751950      -11.6832299678  W2        2484            0.0000000000
      7452      2484  TIP3      H2             26.9220094676       10.7129451950      -10.4145399678  W2        2484            0.0000000000
      7453      2485  TIP3      OH2            34.2061794676        9.7969651950       -2.5742599678  W2        2485            0.0000000000
      7454      2485  TIP3      H1             34.8480594676       10.2535951950       -3.1180399678  W2        2485            0.0000000000
      7455      2485  TIP3      H2             33.3758694676        9.9102051950       -3.0368499678  W2        2485            0.0000000000
      7456      2486  TIP3      OH2            30.9539694676        3.4781351950      -13.1617599678  W2        2486            0.0000000000
      7457      2486  TIP3      H1             30.0153894676        3.5896951950      -13.3128799678  W2        2486            0.0000000000
      7458      2486  TIP3      H2             31.2511794676        4.3348251950      -12.8551899678  W2        2486            0.0000000000
      7459      2487  TIP3      OH2            28.5754994676       10.8484751950       -0.1241099678  W2        2487            0.0000000000
      7460      2487  TIP3      H1             28.2301094676       10.4667151950        0.6828500322  W2        2487            0.0000000000
      7461      2487  TIP3      H2             28.3755094676       11.7818351950       -0.0528199678  W2        2487            0.0000000000
      7462      2488  TIP3      OH2            31.6723194676        5.3454051950      -11.5010199678  W2        2488            0.0000000000
      7463      2488  TIP3      H1             32.5642194676        5.2079051950      -11.1818999678  W2        2488            0.0000000000
      7464      2488  TIP3      H2             31.7286794676        6.1360151950      -12.0376699678  W2        2488            0.0000000000
      7465      2489  TIP3      OH2            22.1811194676        9.9591451950       -5.5912299678  W2        2489            0.0000000000
      7466      2489  TIP3      H1             22.9258394676        9.9567151950       -6.1925799678  W2        2489            0.0000000000
      7467      2489  TIP3      H2             22.2587794676        9.1355251950       -5.1097199678  W2        2489            0.0000000000
      7468      2490  TIP3      OH2            29.1816994676       12.1225751950      -12.3355599678  W2        2490            0.0000000000
      7469      2490  TIP3      H1             28.8865394676       12.9493651950      -11.9540799678  W2        2490            0.0000000000
      7470      2490  TIP3      H2             28.4786994676       11.5032651950      -12.1394199678  W2        2490            0.0000000000
      7471      2491  TIP3      OH2            19.1890894676        8.4198351950       -0.2763799678  W2        2491            0.0000000000
      7472      2491  TIP3      H1             19.4119494676        8.0017951950        0.5553700322  W2        2491            0.0000000000
      7473      2491  TIP3      H2             18.5870994676        7.8073351950       -0.6990999678  W2        2491            0.0000000000
      7474      2492  TIP3      OH2            26.2055794676        7.9368251950        1.9365900322  W2        2492            0.0000000000
      7475      2492  TIP3      H1             25.9096594676        7.7711251950        1.0415000322  W2        2492            0.0000000000
      7476      2492  TIP3      H2             27.1370994676        7.7168551950        1.9259800322  W2        2492            0.0000000000
      7477      2493  TIP3      OH2            30.8258594676       13.3100251950       -0.1736099678  W2        2493            0.0000000000
      7478      2493  TIP3      H1             29.9252894676       13.4932851950       -0.4412199678  W2        2493            0.0000000000
      7479      2493  TIP3      H2             30.8599694676       13.5689551950        0.7472700322  W2        2493            0.0000000000
      7480      2494  TIP3      OH2            36.5571894676        5.5548151950      -11.8063499678  W2        2494            0.0000000000
      7481      2494  TIP3      H1             36.0028194676        5.1586151950      -12.4785999678  W2        2494            0.0000000000
      7482      2494  TIP3      H2             36.6575494676        6.4653351950      -12.0840199678  W2        2494            0.0000000000
      7483      2495  TIP3      OH2            36.5203894676       11.3549851950        1.0308000322  W2        2495            0.0000000000
      7484      2495  TIP3      H1             35.6692394676       11.5933651950        0.6634400322  W2        2495            0.0000000000
      7485      2495  TIP3      H2             37.1107294676       11.3383051950        0.2775100322  W2        2495            0.0000000000
      7486      2496  TIP3      OH2            34.8523594676       14.3408551950      -11.3411399678  W2        2496            0.0000000000
      7487      2496  TIP3      H1             34.4794694676       13.5152351950      -11.0320799678  W2        2496            0.0000000000
      7488      2496  TIP3      H2             35.1297094676       14.1577951950      -12.2387999678  W2        2496            0.0000000000
      7489      2497  TIP3      OH2            32.0127494676        9.1488051950       -4.3199499678  W2        2497            0.0000000000
      7490      2497  TIP3      H1             31.0844394676        8.9169951950       -4.3470199678  W2        2497            0.0000000000
      7491      2497  TIP3      H2             32.4638594676        8.3717851950       -4.6500699678  W2        2497            0.0000000000
      7492      2498  TIP3      OH2            24.5560594676       13.4769651950       -8.1870799678  W2        2498            0.0000000000
      7493      2498  TIP3      H1             25.0832794676       14.2504051950       -8.3871999678  W2        2498            0.0000000000
      7494      2498  TIP3      H2             23.6759094676       13.7018851950       -8.4886799678  W2        2498            0.0000000000
      7495      2499  TIP3      OH2            20.3108294676        8.3393751950      -13.5998399678  W2        2499            0.0000000000
      7496      2499  TIP3      H1             20.9268194676        8.9660951950      -13.2203599678  W2        2499            0.0000000000
      7497      2499  TIP3      H2             19.4490894676        8.6553551950      -13.3281899678  W2        2499            0.0000000000
      7498      2500  TIP3      OH2            25.9832894676       11.1399551950       -8.6106499678  W2        2500            0.0000000000
      7499      2500  TIP3      H1             25.7422894676       12.0653951950       -8.5691199678  W2        2500            0.0000000000
      7500      2500  TIP3      H2             25.2426494676       10.6810851950       -8.2142599678  W2        2500            0.0000000000
      7501      2501  TIP3      OH2            26.4979494676       15.2893151950       -2.2955399678  W2        2501            0.0000000000
      7502      2501  TIP3      H1             26.8604194676       16.1438751950       -2.5290999678  W2        2501            0.0000000000
      7503      2501  TIP3      H2             27.0294694676       14.9974751950       -1.5549099678  W2        2501            0.0000000000
      7504      2502  TIP3      OH2            24.6663694676       16.1617151950       -9.0654299678  W2        2502            0.0000000000
      7505      2502  TIP3      H1             23.7164194676       16.2674551950       -9.0140999678  W2        2502            0.0000000000
      7506      2502  TIP3      H2             25.0181794676       16.9824551950       -8.7206799678  W2        2502            0.0000000000
      7507      2503  TIP3      OH2            30.0420294676       11.3883851950       -2.5949799678  W2        2503            0.0000000000
      7508      2503  TIP3      H1             29.6161594676       11.1605551950       -1.7685799678  W2        2503            0.0000000000
      7509      2503  TIP3      H2             30.6226094676       10.6495651950       -2.7774499678  W2        2503            0.0000000000
      7510      2504  TIP3      OH2            32.2449194676       12.3174351950      -13.5210799678  W2        2504            0.0000000000
      7511      2504  TIP3      H1             32.5982294676       11.9374151950      -12.7167299678  W2        2504            0.0000000000
      7512      2504  TIP3      H2             31.2962694676       12.2239151950      -13.4341499678  W2        2504            0.0000000000
      7513      2505  TIP3      OH2            32.7004494676       15.9403351950       -0.1254999678  W2        2505            0.0000000000
      7514      2505  TIP3      H1             32.0987694676       15.3846251950       -0.6208699678  W2        2505            0.0000000000
      7515      2505  TIP3      H2             32.9818194676       16.6073151950       -0.7517599678  W2        2505            0.0000000000
      7516      2506  TIP3      OH2            36.7483594676       16.7966851950      -13.3200599678  W2        2506            0.0000000000
      7517      2506  TIP3      H1             37.4921494676       17.3827351950      -13.4598999678  W2        2506            0.0000000000
      7518      2506  TIP3      H2             36.0541694676       17.3652651950      -12.9868199678  W2        2506            0.0000000000
      7519      2507  TIP3      OH2            20.8230394676        3.1731051950       -0.7182399678  W2        2507            0.0000000000
      7520      2507  TIP3      H1             19.9302694676        3.5116451950       -0.7858399678  W2        2507            0.0000000000
      7521      2507  TIP3      H2             20.7243194676        2.3177151950       -0.3001599678  W2        2507            0.0000000000
      7522      2508  TIP3      OH2            33.1108494676       10.9896351950      -11.2942899678  W2        2508            0.0000000000
      7523      2508  TIP3      H1             32.8336094676       10.2615651950      -10.7381799678  W2        2508            0.0000000000
      7524      2508  TIP3      H2             34.0381494676       11.1088351950      -11.0890299678  W2        2508            0.0000000000
      7525      2509  TIP3      OH2            20.4742394676       14.9775451950       -2.2832999678  W2        2509            0.0000000000
      7526      2509  TIP3      H1             20.6912694676       14.0457851950       -2.3143299678  W2        2509            0.0000000000
      7527      2509  TIP3      H2             20.7205894676       15.2520451950       -1.4000199678  W2        2509            0.0000000000
      7528      2510  TIP3      OH2            26.3356994676       13.4290451950      -15.0740799678  W2        2510            0.0000000000
      7529      2510  TIP3      H1             26.5746794676       12.6808551950      -15.6211899678  W2        2510            0.0000000000
      7530      2510  TIP3      H2             26.0668294676       13.0412151950      -14.2412999678  W2        2510            0.0000000000
      7531      2511  TIP3      OH2            25.2727594676       12.9994251950      -12.6178199678  W2        2511            0.0000000000
      7532      2511  TIP3      H1             25.4195594676       12.4794051950      -11.8277299678  W2        2511            0.0000000000
      7533      2511  TIP3      H2             25.2699294676       13.9061851950      -12.3112299678  W2        2511            0.0000000000
      7534      2512  TIP3      OH2            21.7258694676       10.2517551950      -12.1072799678  W2        2512            0.0000000000
      7535      2512  TIP3      H1             21.0397994676       10.6040051950      -11.5403099678  W2        2512            0.0000000000
      7536      2512  TIP3      H2             22.2486594676       11.0147151950      -12.3538499678  W2        2512            0.0000000000
      7537      2513  TIP3      OH2            29.5573794676        2.9141351950       -1.8283799678  W2        2513            0.0000000000
      7538      2513  TIP3      H1             30.2561694676        2.9880051950       -1.1784099678  W2        2513            0.0000000000
      7539      2513  TIP3      H2             29.1765194676        2.0496351950       -1.6740899678  W2        2513            0.0000000000
      7540      2514  TIP3      OH2            30.3418694676        2.5663051950      -10.7311499678  W2        2514            0.0000000000
      7541      2514  TIP3      H1             30.5616994676        3.0378451950      -11.5346099678  W2        2514            0.0000000000
      7542      2514  TIP3      H2             30.9002694676        2.9605651950      -10.0610899678  W2        2514            0.0000000000
      7543      2515  TIP3      OH2            28.0104794676       14.6967851950      -11.8683999678  W2        2515            0.0000000000
      7544      2515  TIP3      H1             27.1940894676       15.1937551950      -11.8159699678  W2        2515            0.0000000000
      7545      2515  TIP3      H2             28.5401094676       15.1721351950      -12.5085199678  W2        2515            0.0000000000
      7546      2516  TIP3      OH2            27.5418594676        4.2941851950       -9.8963099678  W2        2516            0.0000000000
      7547      2516  TIP3      H1             28.3541194676        4.7985051950       -9.8501399678  W2        2516            0.0000000000
      7548      2516  TIP3      H2             27.2971594676        4.1491551950       -8.9823499678  W2        2516            0.0000000000
      7549      2517  TIP3      OH2            28.0774994676        5.2804551950       -0.7116499678  W2        2517            0.0000000000
      7550      2517  TIP3      H1             28.1965294676        5.8539951950        0.0453900322  W2        2517            0.0000000000
      7551      2517  TIP3      H2             28.7329594676        4.5923951950       -0.5968699678  W2        2517            0.0000000000
      7552      2518  TIP3      OH2            28.4255294676        1.3754851950       -8.9581999678  W2        2518            0.0000000000
      7553      2518  TIP3      H1             28.0788794676        1.9925451950       -8.3137699678  W2        2518            0.0000000000
      7554      2518  TIP3      H2             29.0842194676        1.8760551950       -9.4396499678  W2        2518            0.0000000000
      7555      2519  TIP3      OH2            25.3487894676       15.7405051950      -11.8867099678  W2        2519            0.0000000000
      7556      2519  TIP3      H1             25.5096594676       16.5402551950      -12.3874499678  W2        2519            0.0000000000
      7557      2519  TIP3      H2             25.1515694676       16.0471051950      -11.0016499678  W2        2519            0.0000000000
      7558      2520  TIP3      OH2            24.0832294676        2.4384251950      -12.2709499678  W2        2520            0.0000000000
      7559      2520  TIP3      H1             23.9997094676        3.3267351950      -11.9243099678  W2        2520            0.0000000000
      7560      2520  TIP3      H2             24.9732594676        2.1730951950      -12.0392699678  W2        2520            0.0000000000
      7561      2521  TIP3      OH2            34.2820794676        3.1874851950        0.1233200322  W2        2521            0.0000000000
      7562      2521  TIP3      H1             33.3656594676        3.4496551950        0.0356900322  W2        2521            0.0000000000
      7563      2521  TIP3      H2             34.6175794676        3.1843851950       -0.7731499678  W2        2521            0.0000000000
      7564      2522  TIP3      OH2            32.8841794676        6.9375851950       -5.7809499678  W2        2522            0.0000000000
      7565      2522  TIP3      H1             32.0866194676        6.5226051950       -6.1094499678  W2        2522            0.0000000000
      7566      2522  TIP3      H2             33.3292894676        6.2469551950       -5.2898999678  W2        2522            0.0000000000
      7567      2523  TIP3      OH2            22.3417594676       12.8656451950      -13.2104999678  W2        2523            0.0000000000
      7568      2523  TIP3      H1             22.9339094676       13.5651251950      -12.9342599678  W2        2523            0.0000000000
      7569      2523  TIP3      H2             22.8010594676       12.4325951950      -13.9300399678  W2        2523            0.0000000000
      7570      2524  TIP3      OH2            20.6576794676        5.5299451950      -14.0945599678  W2        2524            0.0000000000
      7571      2524  TIP3      H1             20.6129394676        6.4692551950      -13.9158599678  W2        2524            0.0000000000
      7572      2524  TIP3      H2             19.7699994676        5.2944351950      -14.3643499678  W2        2524            0.0000000000
      7573      2525  TIP3      OH2            33.9706394676       16.1938351950       -4.1585999678  W2        2525            0.0000000000
      7574      2525  TIP3      H1             33.8150694676       16.8722751950       -4.8156699678  W2        2525            0.0000000000
      7575      2525  TIP3      H2             34.9032794676       16.2657651950       -3.9555399678  W2        2525            0.0000000000
      7576      2526  TIP3      OH2            21.4658794676        0.3116051950       -5.4214599678  W2        2526            0.0000000000
      7577      2526  TIP3      H1             21.2368594676        0.3708551950       -6.3489599678  W2        2526            0.0000000000
      7578      2526  TIP3      H2             21.0232194676       -0.4798448050       -5.1150499678  W2        2526            0.0000000000
      7579      2527  TIP3      OH2            20.3962094676       14.2523151950       -9.2608799678  W2        2527            0.0000000000
      7580      2527  TIP3      H1             19.5640694676       14.7245851950       -9.2337399678  W2        2527            0.0000000000
      7581      2527  TIP3      H2             20.9420394676       14.7620751950       -9.8595699678  W2        2527            0.0000000000
      7582      2528  TIP3      OH2            19.6845794676       16.8646851950        2.0689200322  W2        2528            0.0000000000
      7583      2528  TIP3      H1             20.2247994676       16.6480851950        2.8288400322  W2        2528            0.0000000000
      7584      2528  TIP3      H2             19.2033794676       16.0592851950        1.8791700322  W2        2528            0.0000000000
      7585      2529  TIP3      OH2            24.2819194676       15.7841251950        3.6893400322  W2        2529            0.0000000000
      7586      2529  TIP3      H1             25.0496394676       15.3252051950        4.0302600322  W2        2529            0.0000000000
      7587      2529  TIP3      H2             24.2605394676       15.5581051950        2.7594600322  W2        2529            0.0000000000
      7588      2530  TIP3      OH2            28.3738794676       15.2921851950      -14.9354799678  W2        2530            0.0000000000
      7589      2530  TIP3      H1             27.7299794676       14.6610451950      -14.6141099678  W2        2530            0.0000000000
      7590      2530  TIP3      H2             29.1357094676       14.7609851950      -15.1671299678  W2        2530            0.0000000000
      7591      2531  TIP3      OH2            30.8587894676       14.1642351950        2.4184900322  W2        2531            0.0000000000
      7592      2531  TIP3      H1             30.5077394676       13.3075351950        2.6615300322  W2        2531            0.0000000000
      7593      2531  TIP3      H2             31.5851094676       14.3069051950        3.0253900322  W2        2531            0.0000000000
      7594      2532  TIP3      OH2            32.9781694676       15.1091751950      -14.7016799678  W2        2532            0.0000000000
      7595      2532  TIP3      H1             33.2612094676       14.3146951950      -14.2489899678  W2        2532            0.0000000000
      7596      2532  TIP3      H2             33.7179594676       15.3422751950      -15.2625699678  W2        2532            0.0000000000
      7597      2533  TIP3      OH2            19.5915294676       10.6750951950        3.0233500322  W2        2533            0.0000000000
      7598      2533  TIP3      H1             19.7355794676        9.7731651950        2.7370200322  W2        2533            0.0000000000
      7599      2533  TIP3      H2             18.8192694676       10.9613051950        2.5355800322  W2        2533            0.0000000000
      7600      2534  TIP3      OH2            23.9328994676       11.0186651950      -14.8441899678  W2        2534            0.0000000000
      7601      2534  TIP3      H1             23.9973094676       10.2246251950      -14.3135499678  W2        2534            0.0000000000
      7602      2534  TIP3      H2             24.5858194676       10.8999451950      -15.5339899678  W2        2534            0.0000000000
      7603      2535  TIP3      OH2            26.2471394676       10.6449051950        2.4559900322  W2        2535            0.0000000000
      7604      2535  TIP3      H1             25.9185194676       10.9157151950        1.5987300322  W2        2535            0.0000000000
      7605      2535  TIP3      H2             26.3989594676        9.7038851950        2.3684900322  W2        2535            0.0000000000
      7606      2536  TIP3      OH2            29.2852394676       12.0658351950      -15.1083899678  W2        2536            0.0000000000
      7607      2536  TIP3      H1             29.0166494676       12.2460451950      -14.2074999678  W2        2536            0.0000000000
      7608      2536  TIP3      H2             29.0787994676       11.1404551950      -15.2398099678  W2        2536            0.0000000000
      7609      2537  TIP3      OH2            31.9816594676       10.5606351950       -0.1607799678  W2        2537            0.0000000000
      7610      2537  TIP3      H1             32.7271394676       11.1490051950       -0.2803799678  W2        2537            0.0000000000
      7611      2537  TIP3      H2             31.2243394676       11.1426051950       -0.0974699678  W2        2537            0.0000000000
      7612      2538  TIP3      OH2            20.4241794676        7.8754251950        2.4432800322  W2        2538            0.0000000000
      7613      2538  TIP3      H1             20.8322994676        7.0180851950        2.3223400322  W2        2538            0.0000000000
      7614      2538  TIP3      H2             20.1639394676        7.8895551950        3.3643100322  W2        2538            0.0000000000
      7615      2539  TIP3      OH2            25.0822794676        8.9912851950      -12.5383899678  W2        2539            0.0000000000
      7616      2539  TIP3      H1             24.6224794676        8.5071151950      -11.8525399678  W2        2539            0.0000000000
      7617      2539  TIP3      H2             25.3371494676        8.3228251950      -13.1743399678  W2        2539            0.0000000000
      7618      2540  TIP3      OH2            24.3712094676        6.8839951950       -0.1824299678  W2        2540            0.0000000000
      7619      2540  TIP3      H1             23.7528194676        7.5586551950        0.0980400322  W2        2540            0.0000000000
      7620      2540  TIP3      H2             24.7153294676        7.2053851950       -1.0158099678  W2        2540            0.0000000000
      7621      2541  TIP3      OH2            26.1533194676        7.2344651950      -14.2760699678  W2        2541            0.0000000000
      7622      2541  TIP3      H1             25.9728194676        7.0795851950      -15.2032399678  W2        2541            0.0000000000
      7623      2541  TIP3      H2             27.1033694676        7.3423351950      -14.2312799678  W2        2541            0.0000000000
      7624      2542  TIP3      OH2            29.3910294676        9.3555251950        3.0950500322  W2        2542            0.0000000000
      7625      2542  TIP3      H1             30.3441494676        9.4394351950        3.0676500322  W2        2542            0.0000000000
      7626      2542  TIP3      H2             29.2304894676        8.6437051950        3.7145400322  W2        2542            0.0000000000
      7627      2543  TIP3      OH2            35.5431494676        9.5888851950      -14.8302599678  W2        2543            0.0000000000
      7628      2543  TIP3      H1             35.2696294676        9.1644351950      -15.6434299678  W2        2543            0.0000000000
      7629      2543  TIP3      H2             35.5825594676       10.5203351950      -15.0472199678  W2        2543            0.0000000000
      7630      2544  TIP3      OH2            24.7105794676        4.2390751950        0.8998800322  W2        2544            0.0000000000
      7631      2544  TIP3      H1             24.8606694676        3.5102051950        0.2978500322  W2        2544            0.0000000000
      7632      2544  TIP3      H2             24.7128194676        5.0162451950        0.3411000322  W2        2544            0.0000000000
      7633      2545  TIP3      OH2            25.1231494676        2.6086551950       -1.6073799678  W2        2545            0.0000000000
      7634      2545  TIP3      H1             25.6588994676        3.0603251950       -2.2594499678  W2        2545            0.0000000000
      7635      2545  TIP3      H2             24.2711094676        2.5006351950       -2.0299699678  W2        2545            0.0000000000
      7636      2546  TIP3      OH2            26.7049894676        8.0482751950       -1.3678599678  W2        2546            0.0000000000
      7637      2546  TIP3      H1             27.4554694676        7.8920251950       -1.9410799678  W2        2546            0.0000000000
      7638      2546  TIP3      H2             26.3658194676        8.8999351950       -1.6433099678  W2        2546            0.0000000000
      7639      2547  TIP3      OH2            31.1206094676        5.8634551950        3.6606700322  W2        2547            0.0000000000
      7640      2547  TIP3      H1             31.3127394676        4.9323951950        3.5491200322  W2        2547            0.0000000000
      7641      2547  TIP3      H2             31.9782394676        6.2884051950        3.6502100322  W2        2547            0.0000000000
      7642      2548  TIP3      OH2            32.4373294676        8.6519751950        1.7379400322  W2        2548            0.0000000000
      7643      2548  TIP3      H1             32.1558294676        9.3614351950        1.1603200322  W2        2548            0.0000000000
      7644      2548  TIP3      H2             33.3797594676        8.5792751950        1.5870600322  W2        2548            0.0000000000
      7645      2549  TIP3      OH2            23.1892094676        5.4374251950        2.8114400322  W2        2549            0.0000000000
      7646      2549  TIP3      H1             22.4221094676        4.9049051950        2.6012000322  W2        2549            0.0000000000
      7647      2549  TIP3      H2             23.8681094676        5.1274651950        2.2120700322  W2        2549            0.0000000000
      7648      2550  TIP3      OH2            25.9286994676        0.0652251950       -1.1760199678  W2        2550            0.0000000000
      7649      2550  TIP3      H1             25.8306594676        1.0115451950       -1.2813999678  W2        2550            0.0000000000
      7650      2550  TIP3      H2             25.1863194676       -0.3073948050       -1.6516699678  W2        2550            0.0000000000
      7651      2551  TIP3      OH2            27.1927494676        4.3867651950        2.3878200322  W2        2551            0.0000000000
      7652      2551  TIP3      H1             26.9572894676        4.1674351950        3.2893100322  W2        2551            0.0000000000
      7653      2551  TIP3      H2             26.4094394676        4.1798851950        1.8780700322  W2        2551            0.0000000000
      7654      2552  TIP3      OH2            29.9084094676        3.5141151950        1.4631700322  W2        2552            0.0000000000
      7655      2552  TIP3      H1             28.9609494676        3.5460851950        1.5955000322  W2        2552            0.0000000000
      7656      2552  TIP3      H2             30.2210794676        2.8888251950        2.1169900322  W2        2552            0.0000000000
      7657      2553  TIP3      OH2            31.5425594676        2.1482251950        3.4683600322  W2        2553            0.0000000000
      7658      2553  TIP3      H1             31.4457394676        1.1959551950        3.4625500322  W2        2553            0.0000000000
      7659      2553  TIP3      H2             31.2208694676        2.4169051950        4.3289100322  W2        2553            0.0000000000
      7660      2554  TIP3      OH2            21.3694894676        3.3578051950        2.5159100322  W2        2554            0.0000000000
      7661      2554  TIP3      H1             21.5812294676        2.6514151950        1.9056600322  W2        2554            0.0000000000
      7662      2554  TIP3      H2             21.2582394676        2.9204051950        3.3600300322  W2        2554            0.0000000000
      7663      2555  TIP3      OH2            26.1505094676       -0.6410348050        1.4952600322  W2        2555            0.0000000000
      7664      2555  TIP3      H1             26.8623494676       -1.2808148050        1.4811700322  W2        2555            0.0000000000
      7665      2555  TIP3      H2             26.0495494676       -0.3742048050        0.5815700322  W2        2555            0.0000000000
      7666      2556  TIP3      OH2            26.5042594676        1.0418051950        3.5488900322  W2        2556            0.0000000000
      7667      2556  TIP3      H1             26.3724794676        0.5661851950        2.7287400322  W2        2556            0.0000000000
      7668      2556  TIP3      H2             25.9049994676        1.7861651950        3.4936000322  W2        2556            0.0000000000
      7669      2557  TIP3      OH2            26.0504894676       17.9248351950      -13.2747099678  W2        2557            0.0000000000
      7670      2557  TIP3      H1             26.9835594676       18.0827051950      -13.1308699678  W2        2557            0.0000000000
      7671      2557  TIP3      H2             25.7863694676       18.6001351950      -13.8995599678  W2        2557            0.0000000000
      7672      2558  TIP3      OH2            19.6189794676       12.5612151950      -13.7918999678  W2        2558            0.0000000000
      7673      2558  TIP3      H1             20.5328994676       12.6401051950      -13.5185099678  W2        2558            0.0000000000
      7674      2558  TIP3      H2             19.6262894676       11.8741751950      -14.4583399678  W2        2558            0.0000000000
      7675      2559  TIP3      OH2            18.2680394676       17.9540651950       -8.7145099678  W2        2559            0.0000000000
      7676      2559  TIP3      H1             17.6207494676       17.4922351950       -9.2473899678  W2        2559            0.0000000000
      7677      2559  TIP3      H2             18.6224994676       17.2823951950       -8.1318899678  W2        2559            0.0000000000
      7678      2560  TIP3      OH2            19.1379594676       16.0347651950       -6.9098899678  W2        2560            0.0000000000
      7679      2560  TIP3      H1             18.8036394676       15.1544951950       -6.7378699678  W2        2560            0.0000000000
      7680      2560  TIP3      H2             19.3601994676       16.3802651950       -6.0453299678  W2        2560            0.0000000000
      7681      2561  TIP3      OH2            36.6864394676       16.8444051950       -3.9294099678  W2        2561            0.0000000000
      7682      2561  TIP3      H1             36.6651094676       17.0292451950       -2.9904699678  W2        2561            0.0000000000
      7683      2561  TIP3      H2             37.3770594676       17.4128051950       -4.2702699678  W2        2561            0.0000000000
      7684      2562  TIP3      OH2            36.2497294676       16.4115151950       -1.0074999678  W2        2562            0.0000000000
      7685      2562  TIP3      H1             35.7625994676       15.6759251950       -1.3787599678  W2        2562            0.0000000000
      7686      2562  TIP3      H2             36.7989994676       16.0179051950       -0.3295599678  W2        2562            0.0000000000
      7687      2563  TIP3      OH2            34.7004594676       12.2013251950        3.6305300322  W2        2563            0.0000000000
      7688      2563  TIP3      H1             33.8345694676       12.0962951950        4.0247600322  W2        2563            0.0000000000
      7689      2563  TIP3      H2             35.0770494676       12.9596551950        4.0770000322  W2        2563            0.0000000000
      7690      2564  TIP3      OH2            36.0014294676       10.4576951950      -10.8552199678  W2        2564            0.0000000000
      7691      2564  TIP3      H1             36.8515694676       10.8787851950      -10.7280599678  W2        2564            0.0000000000
      7692      2564  TIP3      H2             36.0069394676        9.7177051950      -10.2480799678  W2        2564            0.0000000000
      7693      2565  TIP3      OH2            36.3959894676        8.5114351950       -9.0316499678  W2        2565            0.0000000000
      7694      2565  TIP3      H1             35.6694494676        8.0316951950       -8.6338899678  W2        2565            0.0000000000
      7695      2565  TIP3      H2             36.9773194676        8.7169051950       -8.2994899678  W2        2565            0.0000000000
      7696      2566  TIP3      OH2            36.1551094676       11.2961851950       -4.0838899678  W2        2566            0.0000000000
      7697      2566  TIP3      H1             36.9885294676       10.9181851950       -4.3645299678  W2        2566            0.0000000000
      7698      2566  TIP3      H2             36.2671394676       12.2393051950       -4.2029799678  W2        2566            0.0000000000
      7699      2567  TIP3      OH2            34.6413394676       14.1739351950       -1.7770499678  W2        2567            0.0000000000
      7700      2567  TIP3      H1             33.9938694676       14.4990851950       -1.1515299678  W2        2567            0.0000000000
      7701      2567  TIP3      H2             34.1237394676       13.7337051950       -2.4512199678  W2        2567            0.0000000000
      7702      2568  TIP3      OH2            36.6642994676        8.4122851950      -12.6405199678  W2        2568            0.0000000000
      7703      2568  TIP3      H1             36.1424094676        8.7686951950      -13.3594299678  W2        2568            0.0000000000
      7704      2568  TIP3      H2             36.6312194676        9.0870651950      -11.9624299678  W2        2568            0.0000000000
      7705      2569  TIP3      OH2            35.0131994676        5.6518451950      -14.0898099678  W2        2569            0.0000000000
      7706      2569  TIP3      H1             35.1096394676        6.3185451950      -14.7698399678  W2        2569            0.0000000000
      7707      2569  TIP3      H2             34.8731594676        4.8364751950      -14.5712599678  W2        2569            0.0000000000
      7708      2570  TIP3      OH2            34.1826694676        7.0320851950       -8.4687799678  W2        2570            0.0000000000
      7709      2570  TIP3      H1             34.0325494676        6.0869451950       -8.4889999678  W2        2570            0.0000000000
      7710      2570  TIP3      H2             33.8291194676        7.3132251950       -7.6248699678  W2        2570            0.0000000000
      7711      2571  TIP3      OH2            19.2179094676        9.1103051950       -4.4583999678  W2        2571            0.0000000000
      7712      2571  TIP3      H1             19.4021994676        9.0284751950       -5.3941099678  W2        2571            0.0000000000
      7713      2571  TIP3      H2             20.0671994676        8.9860051950       -4.0347599678  W2        2571            0.0000000000
      7714      2572  TIP3      OH2            35.0389594676        9.0024151950        1.1700500322  W2        2572            0.0000000000
      7715      2572  TIP3      H1             35.6216894676        8.2676451950        1.3617700322  W2        2572            0.0000000000
      7716      2572  TIP3      H2             35.6028894676        9.7744451950        1.2166300322  W2        2572            0.0000000000
      7717      2573  TIP3      OH2            36.5356694676        6.9049951950        1.8545900322  W2        2573            0.0000000000
      7718      2573  TIP3      H1             35.6723394676        6.5262051950        1.6890600322  W2        2573            0.0000000000
      7719      2573  TIP3      H2             37.1400394676        6.1664751950        1.7801700322  W2        2573            0.0000000000
      7720      2574  TIP3      OH2            34.2605794676        3.0598251950      -14.9722599678  W2        2574            0.0000000000
      7721      2574  TIP3      H1             34.8711594676        2.6885051950      -14.3354399678  W2        2574            0.0000000000
      7722      2574  TIP3      H2             33.4237294676        2.6385151950      -14.7762599678  W2        2574            0.0000000000
      7723      2575  TIP3      OH2            33.8931494676        4.6146651950      -10.0062699678  W2        2575            0.0000000000
      7724      2575  TIP3      H1             34.1728594676        3.7077051950       -9.8820999678  W2        2575            0.0000000000
      7725      2575  TIP3      H2             34.6523194676        5.0488151950      -10.3953499678  W2        2575            0.0000000000
      7726      2576  TIP3      OH2            34.5049794676        5.1964051950       -4.5703799678  W2        2576            0.0000000000
      7727      2576  TIP3      H1             35.4377794676        5.4083951950       -4.6047799678  W2        2576            0.0000000000
      7728      2576  TIP3      H2             34.2697294676        5.2976151950       -3.6480799678  W2        2576            0.0000000000
      7729      2577  TIP3      OH2            34.5341694676        5.9329351950       -1.7944399678  W2        2577            0.0000000000
      7730      2577  TIP3      H1             33.6912994676        6.2009751950       -1.4284599678  W2        2577            0.0000000000
      7731      2577  TIP3      H2             34.9765994676        6.7551251950       -2.0053299678  W2        2577            0.0000000000
      7732      2578  TIP3      OH2            18.8153894676        4.3808051950        1.6824800322  W2        2578            0.0000000000
      7733      2578  TIP3      H1             19.7348794676        4.2586351950        1.9187900322  W2        2578            0.0000000000
      7734      2578  TIP3      H2             18.3658394676        3.6307751950        2.0718300322  W2        2578            0.0000000000
      7735      2579  TIP3      OH2            36.8173294676       -0.0870448050        3.5590600322  W2        2579            0.0000000000
      7736      2579  TIP3      H1             37.1670294676       -0.7406948050        2.9535300322  W2        2579            0.0000000000
      7737      2579  TIP3      H2             36.9642794676        0.7503651950        3.1193200322  W2        2579            0.0000000000
      7738      2580  TIP3      OH2            34.5066294676        1.8775951950       -9.9580699678  W2        2580            0.0000000000
      7739      2580  TIP3      H1             34.6891294676        1.4287451950       -9.1325699678  W2        2580            0.0000000000
      7740      2580  TIP3      H2             33.9069194676        1.2930351950      -10.4216099678  W2        2580            0.0000000000
      7741      2581  TIP3      OH2            20.0366394676        2.6929651950       -5.4262299678  W2        2581            0.0000000000
      7742      2581  TIP3      H1             20.4817994676        1.9012151950       -5.1242599678  W2        2581            0.0000000000
      7743      2581  TIP3      H2             20.5029394676        3.4094851950       -4.9956699678  W2        2581            0.0000000000
      7744      2582  TIP3      OH2            18.3406694676        5.6922651950       -4.3572099678  W2        2582            0.0000000000
      7745      2582  TIP3      H1             18.8326494676        5.4713151950       -5.1480099678  W2        2582            0.0000000000
      7746      2582  TIP3      H2             18.7027594676        6.5326051950       -4.0762599678  W2        2582            0.0000000000
      7747      2583  TIP3      OH2            36.3370494676        2.0224151950        1.9081900322  W2        2583            0.0000000000
      7748      2583  TIP3      H1             35.4196194676        2.2931251950        1.8725400322  W2        2583            0.0000000000
      7749      2583  TIP3      H2             36.4599894676        1.4872551950        1.1241600322  W2        2583            0.0000000000
      7750      2584  TIP3      OH2            36.3732494676        1.9454051950      -13.4300399678  W2        2584            0.0000000000
      7751      2584  TIP3      H1             36.7855094676        1.2239751950      -13.9052399678  W2        2584            0.0000000000
      7752      2584  TIP3      H2             37.0548994676        2.6148651950      -13.3716099678  W2        2584            0.0000000000
      7753      2585  TIP3      OH2            18.6543194676        1.9501751950      -10.3029699678  W2        2585            0.0000000000
      7754      2585  TIP3      H1             17.7291594676        2.1588351950      -10.4324199678  W2        2585            0.0000000000
      7755      2585  TIP3      H2             19.1083094676        2.4342551950      -10.9927399678  W2        2585            0.0000000000
      7756      2586  TIP3      OH2            33.4250394676       16.9343451950       -8.3572299678  W2        2586            0.0000000000
      7757      2586  TIP3      H1             34.0773294676       16.5865551950       -8.9653199678  W2        2586            0.0000000000
      7758      2586  TIP3      H2             33.9354194676       17.4226651950       -7.7112599678  W2        2586            0.0000000000
      7759      2587  TIP3      OH2            18.6178594676        0.6880751950       -1.9587199678  W2        2587            0.0000000000
      7760      2587  TIP3      H1             17.9529094676        0.4421051950       -1.3156299678  W2        2587            0.0000000000
      7761      2587  TIP3      H2             18.1749894676        1.3101151950       -2.5359199678  W2        2587            0.0000000000
      7762      2588  TIP3      OH2            20.8097894676       13.8634851950        2.1858600322  W2        2588            0.0000000000
      7763      2588  TIP3      H1             19.9890394676       14.0381351950        1.7253300322  W2        2588            0.0000000000
      7764      2588  TIP3      H2             20.5575694676       13.7899551950        3.1063000322  W2        2588            0.0000000000
      7765      2589  TIP3      OH2            23.7640794676       14.8376051950       -1.5557399678  W2        2589            0.0000000000
      7766      2589  TIP3      H1             23.3391894676       15.6474551950       -1.8382799678  W2        2589            0.0000000000
      7767      2589  TIP3      H2             24.6683594676       14.9230151950       -1.8577599678  W2        2589            0.0000000000
      7768      2590  TIP3      OH2            28.0752194676       16.2366051950        1.4036300322  W2        2590            0.0000000000
      7769      2590  TIP3      H1             28.2599694676       15.9032151950        2.2816600322  W2        2590            0.0000000000
      7770      2590  TIP3      H2             28.9216694676       16.5464651950        1.0815500322  W2        2590            0.0000000000
      7771      2591  TIP3      OH2            30.4202594676       17.5224951950        0.6477700322  W2        2591            0.0000000000
      7772      2591  TIP3      H1             31.0971494676       16.8897251950        0.4076900322  W2        2591            0.0000000000
      7773      2591  TIP3      H2             30.7421394676       17.9235451950        1.4551000322  W2        2591            0.0000000000
      7774      2592  TIP3      OH2            35.3376394676        0.1120451950       -0.2727299678  W2        2592            0.0000000000
      7775      2592  TIP3      H1             34.5249894676        0.4370751950       -0.6602599678  W2        2592            0.0000000000
      7776      2592  TIP3      H2             35.5704894676       -0.6481048050       -0.8058199678  W2        2592            0.0000000000
      7777      2593  TIP3      OH2            21.1657494676       18.0939951950       -1.5082099678  W2        2593            0.0000000000
      7778      2593  TIP3      H1             20.4453894676       18.5340951950       -1.9594399678  W2        2593            0.0000000000
      7779      2593  TIP3      H2             20.8001494676       17.8434651950       -0.6598099678  W2        2593            0.0000000000
      7780      2594  TIP3      OH2            23.6330094676       17.6943851950       -2.4784899678  W2        2594            0.0000000000
      7781      2594  TIP3      H1             22.7682294676       17.7662351950       -2.0744799678  W2        2594            0.0000000000
      7782      2594  TIP3      H2             23.5779094676       18.2411151950       -3.2622399678  W2        2594            0.0000000000
      7783      2595  TIP3      OH2            28.3435694676       17.5822751950       -3.3028899678  W2        2595            0.0000000000
      7784      2595  TIP3      H1             27.8869694676       18.1112451950       -3.9570499678  W2        2595            0.0000000000
      7785      2595  TIP3      H2             28.5063694676       18.1854151950       -2.5776599678  W2        2595            0.0000000000
      7786      2596  TIP3      OH2            30.6711994676       16.4602351950       -2.3578599678  W2        2596            0.0000000000
      7787      2596  TIP3      H1             29.7665694676       16.6252551950       -2.6236499678  W2        2596            0.0000000000
      7788      2596  TIP3      H2             31.1000594676       17.3134551950       -2.4235199678  W2        2596            0.0000000000
      7789      2597  TIP3      OH2            33.2753894676       18.0301451950       -2.0630799678  W2        2597            0.0000000000
      7790      2597  TIP3      H1             33.0935894676       18.9460351950       -2.2735899678  W2        2597            0.0000000000
      7791      2597  TIP3      H2             33.4521694676       17.6198551950       -2.9096199678  W2        2597            0.0000000000
      7792      2598  TIP3      OH2            20.5805594676       16.7172451950       -4.5980299678  W2        2598            0.0000000000
      7793      2598  TIP3      H1             20.5621594676       16.2917551950       -3.7407999678  W2        2598            0.0000000000
      7794      2598  TIP3      H2             21.3853494676       16.3987451950       -5.0068099678  W2        2598            0.0000000000
      7795      2599  TIP3      OH2            22.7218694676       15.4271151950       -5.9430399678  W2        2599            0.0000000000
      7796      2599  TIP3      H1             22.5029394676       14.5108551950       -5.7734399678  W2        2599            0.0000000000
      7797      2599  TIP3      H2             23.5460894676       15.5671551950       -5.4768999678  W2        2599            0.0000000000
      7798      2600  TIP3      OH2            25.2591194676       15.8970451950       -5.0942399678  W2        2600            0.0000000000
      7799      2600  TIP3      H1             25.4716894676       15.0089451950       -5.3811499678  W2        2600            0.0000000000
      7800      2600  TIP3      H2             25.3236294676       15.8628151950       -4.1398399678  W2        2600            0.0000000000
      7801      2601  TIP3      OH2            28.7674894676        1.5611051950       -5.9499099678  W2        2601            0.0000000000
      7802      2601  TIP3      H1             28.0931694676        0.9316651950       -5.6943299678  W2        2601            0.0000000000
      7803      2601  TIP3      H2             29.3314094676        1.0769951950       -6.5531199678  W2        2601            0.0000000000
      7804      2602  TIP3      OH2            33.9102094676       -0.3314948050       -5.8371999678  W2        2602            0.0000000000
      7805      2602  TIP3      H1             34.5139694676        0.2160451950       -6.3390999678  W2        2602            0.0000000000
      7806      2602  TIP3      H2             33.0404094676       -0.0124548050       -6.0777899678  W2        2602            0.0000000000
      7807      2603  TIP3      OH2            35.6372494676        0.8073751950       -7.5041099678  W2        2603            0.0000000000
      7808      2603  TIP3      H1             36.2489994676        0.2929451950       -8.0307499678  W2        2603            0.0000000000
      7809      2603  TIP3      H2             36.0195894676        1.6845851950       -7.4806699678  W2        2603            0.0000000000
      7810      2604  TIP3      OH2            21.0942394676        0.1951351950       -8.1279199678  W2        2604            0.0000000000
      7811      2604  TIP3      H1             20.3172194676       -0.0393748050       -8.6353299678  W2        2604            0.0000000000
      7812      2604  TIP3      H2             21.6245994676       -0.6016548050       -8.1191199678  W2        2604            0.0000000000
      7813      2605  TIP3      OH2            19.9305794676       -0.0070548050      -12.3243099678  W2        2605            0.0000000000
      7814      2605  TIP3      H1             20.3696494676        0.6039951950      -12.9159599678  W2        2605            0.0000000000
      7815      2605  TIP3      H2             19.2968194676        0.5313551950      -11.8503099678  W2        2605            0.0000000000
      7816      2606  TIP3      OH2            25.6734994676        0.1218451950       -8.3146099678  W2        2606            0.0000000000
      7817      2606  TIP3      H1             26.5478394676        0.5102751950       -8.3441799678  W2        2606            0.0000000000
      7818      2606  TIP3      H2             25.5375794676       -0.0933748050       -7.3918899678  W2        2606            0.0000000000
      7819      2607  TIP3      OH2            31.2303394676        0.1518251950       -6.6654399678  W2        2607            0.0000000000
      7820      2607  TIP3      H1             31.3064994676        0.2469851950       -7.6148399678  W2        2607            0.0000000000
      7821      2607  TIP3      H2             30.9552594676       -0.7558848050       -6.5365299678  W2        2607            0.0000000000
      7822      2608  TIP3      OH2            32.5835994676        0.1776051950      -10.9729399678  W2        2608            0.0000000000
      7823      2608  TIP3      H1             31.8807094676        0.7925251950      -11.1827999678  W2        2608            0.0000000000
      7824      2608  TIP3      H2             32.1387394676       -0.6597248050      -10.8418499678  W2        2608            0.0000000000
      7825      2609  TIP3      OH2            19.8315294676       15.9411651950      -11.4267999678  W2        2609            0.0000000000
      7826      2609  TIP3      H1             19.1465194676       15.9030551950      -12.0942899678  W2        2609            0.0000000000
      7827      2609  TIP3      H2             19.8352494676       16.8539251950      -11.1385899678  W2        2609            0.0000000000
      7828      2610  TIP3      OH2            21.7914894676        1.9090951950      -13.8818999678  W2        2610            0.0000000000
      7829      2610  TIP3      H1             22.2828294676        1.2793351950      -14.4093499678  W2        2610            0.0000000000
      7830      2610  TIP3      H2             22.4151194676        2.2050351950      -13.2187799678  W2        2610            0.0000000000
      7831      2611  TIP3      OH2            26.8174994676        2.2022451950      -11.4248499678  W2        2611            0.0000000000
      7832      2611  TIP3      H1             26.9956294676        1.5555651950      -10.7419899678  W2        2611            0.0000000000
      7833      2611  TIP3      H2             26.7641194676        3.0360151950      -10.9577399678  W2        2611            0.0000000000
      7834      2612  TIP3      OH2            28.6958794676       17.1506551950      -13.0291799678  W2        2612            0.0000000000
      7835      2612  TIP3      H1             29.5618994676       17.5173951950      -13.2073599678  W2        2612            0.0000000000
      7836      2612  TIP3      H2             28.4491594676       16.7114551950      -13.8430999678  W2        2612            0.0000000000
      7837      2613  TIP3      OH2            35.4048394676       16.7136851950      -10.3500699678  W2        2613            0.0000000000
      7838      2613  TIP3      H1             35.2105494676       15.9658951950      -10.9151099678  W2        2613            0.0000000000
      7839      2613  TIP3      H2             35.3658494676       17.4716951950      -10.9332799678  W2        2613            0.0000000000
      7840      2614  TIP3      OH2            21.0520394676        0.7093251950        1.3897000322  W2        2614            0.0000000000
      7841      2614  TIP3      H1             20.6858594676       -0.0564148050        1.8321700322  W2        2614            0.0000000000
      7842      2614  TIP3      H2             21.9648894676        0.7383451950        1.6762100322  W2        2614            0.0000000000
      7843      2615  TIP3      OH2            23.0251194676        0.0597651950        2.9254100322  W2        2615            0.0000000000
      7844      2615  TIP3      H1             23.9234794676       -0.2142148050        2.7407500322  W2        2615            0.0000000000
      7845      2615  TIP3      H2             22.6384294676       -0.6826348050        3.3896700322  W2        2615            0.0000000000
      7846      2616  TIP3      OH2            21.6496494676       16.8612451950      -14.4015899678  W2        2616            0.0000000000
      7847      2616  TIP3      H1             21.3821094676       17.1475351950      -13.5282799678  W2        2616            0.0000000000
      7848      2616  TIP3      H2             22.4209094676       16.3151651950      -14.2493399678  W2        2616            0.0000000000
      7849      2617  TIP3      OH2            31.4463494676       -0.6077048050        3.1076900322  W2        2617            0.0000000000
      7850      2617  TIP3      H1             31.5230694676       -1.0336348050        3.9614600322  W2        2617            0.0000000000
      7851      2617  TIP3      H2             32.3400094676       -0.5942348050        2.7650400322  W2        2617            0.0000000000
      7852      2618  TIP3      OH2            34.6224594676       15.4649251950        1.8001100322  W2        2618            0.0000000000
      7853      2618  TIP3      H1             33.8406494676       15.2787251950        1.2801700322  W2        2618            0.0000000000
      7854      2618  TIP3      H2             34.5504494676       16.3943551950        2.0173600322  W2        2618            0.0000000000
      7855      2619  TIP3      OH2            37.8634894676        6.3307951950       -9.2295699678  W2        2619            0.0000000000
      7856      2619  TIP3      H1             37.4158294676        7.1766651950       -9.2479199678  W2        2619            0.0000000000
      7857      2619  TIP3      H2             37.3026094676        5.7512151950       -9.7450599678  W2        2619            0.0000000000
      7858      2620  TIP3      OH2            37.8841694676       10.8676651950       -1.4787899678  W2        2620            0.0000000000
      7859      2620  TIP3      H1             37.3830094676       10.8396051950       -2.2938199678  W2        2620            0.0000000000
      7860      2620  TIP3      H2             37.8895394676        9.9619851950       -1.1690599678  W2        2620            0.0000000000
      7861      2621  TIP3      OH2            37.6344394676       13.6480451950       -4.5947699678  W2        2621            0.0000000000
      7862      2621  TIP3      H1             38.5804994676       13.5037451950       -4.6138199678  W2        2621            0.0000000000
      7863      2621  TIP3      H2             37.5220694676       14.4323251950       -4.0576499678  W2        2621            0.0000000000
      7864      2622  TIP3      OH2            37.2011594676        3.0632351950       -7.6273999678  W2        2622            0.0000000000
      7865      2622  TIP3      H1             37.8319294676        3.0344451950       -6.9080099678  W2        2622            0.0000000000
      7866      2622  TIP3      H2             37.6505894676        2.6381051950       -8.3578099678  W2        2622            0.0000000000
      7867      2623  TIP3      OH2            38.0450894676        8.4198351950       -0.2763799678  W2        2623            0.0000000000
      7868      2623  TIP3      H1             38.2679494676        8.0017951950        0.5553700322  W2        2623            0.0000000000
      7869      2623  TIP3      H2             37.4430994676        7.8073351950       -0.6990999678  W2        2623            0.0000000000
      7870      2624  TIP3      OH2            38.4475294676       10.6750951950        3.0233500322  W2        2624            0.0000000000
      7871      2624  TIP3      H1             38.5915794676        9.7731651950        2.7370200322  W2        2624            0.0000000000
      7872      2624  TIP3      H2             37.6752694676       10.9613051950        2.5355800322  W2        2624            0.0000000000
      7873      2625  TIP3      OH2            37.1240394676       17.9540651950       -8.7145099678  W2        2625            0.0000000000
      7874      2625  TIP3      H1             36.4767494676       17.4922351950       -9.2473899678  W2        2625            0.0000000000
      7875      2625  TIP3      H2             37.4784994676       17.2823951950       -8.1318899678  W2        2625            0.0000000000
      7876      2626  TIP3      OH2            37.9939594676       16.0347651950       -6.9098899678  W2        2626            0.0000000000
      7877      2626  TIP3      H1             37.6596394676       15.1544951950       -6.7378699678  W2        2626            0.0000000000
      7878      2626  TIP3      H2             38.2161994676       16.3802651950       -6.0453299678  W2        2626            0.0000000000
      7879      2627  TIP3      OH2            38.0739094676        9.1103051950       -4.4583999678  W2        2627            0.0000000000
      7880      2627  TIP3      H1             38.2581994676        9.0284751950       -5.3941099678  W2        2627            0.0000000000
      7881      2627  TIP3      H2             38.9231994676        8.9860051950       -4.0347599678  W2        2627            0.0000000000
      7882      2628  TIP3      OH2            37.6713894676        4.3808051950        1.6824800322  W2        2628            0.0000000000
      7883      2628  TIP3      H1             38.5908794676        4.2586351950        1.9187900322  W2        2628            0.0000000000
      7884      2628  TIP3      H2             37.2218394676        3.6307751950        2.0718300322  W2        2628            0.0000000000
      7885      2629  TIP3      OH2            37.1966694676        5.6922651950       -4.3572099678  W2        2629            0.0000000000
      7886      2629  TIP3      H1             37.6886494676        5.4713151950       -5.1480099678  W2        2629            0.0000000000
      7887      2629  TIP3      H2             37.5587594676        6.5326051950       -4.0762599678  W2        2629            0.0000000000
      7888      2630  TIP3      OH2            37.5103194676        1.9501751950      -10.3029699678  W2        2630            0.0000000000
      7889      2630  TIP3      H1             36.5851594676        2.1588351950      -10.4324199678  W2        2630            0.0000000000
      7890      2630  TIP3      H2             37.9643094676        2.4342551950      -10.9927399678  W2        2630            0.0000000000
      7891      2631  TIP3      OH2            37.4738594676        0.6880751950       -1.9587199678  W2        2631            0.0000000000
      7892      2631  TIP3      H1             36.8089094676        0.4421051950       -1.3156299678  W2        2631            0.0000000000
      7893      2631  TIP3      H2             37.0309894676        1.3101151950       -2.5359199678  W2        2631            0.0000000000
      7894      2632  TIP3      OH2           -26.3955005324       28.2073651950       -8.1691699678  W2        2632            0.0000000000
      7895      2632  TIP3      H1            -26.3063905324       29.1511851950       -8.3014599678  W2        2632            0.0000000000
      7896      2632  TIP3      H2            -27.0337405324       27.9320051950       -8.8272299678  W2        2632            0.0000000000
      7897      2633  TIP3      OH2           -27.4623705324       27.4624351950       -4.7503499678  W2        2633            0.0000000000
      7898      2633  TIP3      H1            -27.5006205324       26.8160651950       -4.0453899678  W2        2633            0.0000000000
      7899      2633  TIP3      H2            -27.7847205324       26.9958751950       -5.5214799678  W2        2633            0.0000000000
      7900      2634  TIP3      OH2           -35.0938705324       27.0766451950       -3.1573599678  W2        2634            0.0000000000
      7901      2634  TIP3      H1            -35.0526605324       26.4509751950       -2.4341199678  W2        2634            0.0000000000
      7902      2634  TIP3      H2            -34.3911005324       27.7005051950       -2.9753199678  W2        2634            0.0000000000
      7903      2635  TIP3      OH2           -23.7563505324       30.4014751950       -6.4488399678  W2        2635            0.0000000000
      7904      2635  TIP3      H1            -24.1970805324       29.6810751950       -5.9982799678  W2        2635            0.0000000000
      7905      2635  TIP3      H2            -23.7693805324       31.1221951950       -5.8190699678  W2        2635            0.0000000000
      7906      2636  TIP3      OH2           -34.1705605324       31.5265351950       -4.6224499678  W2        2636            0.0000000000
      7907      2636  TIP3      H1            -34.5400405324       30.7245851950       -4.9920199678  W2        2636            0.0000000000
      7908      2636  TIP3      H2            -33.2294505324       31.3580251950       -4.5761099678  W2        2636            0.0000000000
      7909      2637  TIP3      OH2           -37.5605105324       25.1867951950       -9.2295699678  W2        2637            0.0000000000
      7910      2637  TIP3      H1            -38.0081705324       26.0326651950       -9.2479199678  W2        2637            0.0000000000
      7911      2637  TIP3      H2            -38.1213905324       24.6072151950       -9.7450599678  W2        2637            0.0000000000
      7912      2638  TIP3      OH2           -36.8499005324       27.3487551950       -7.1037699678  W2        2638            0.0000000000
      7913      2638  TIP3      H1            -36.6365505324       26.5789151950       -6.5764699678  W2        2638            0.0000000000
      7914      2638  TIP3      H2            -36.1121405324       27.4384251950       -7.7070099678  W2        2638            0.0000000000
      7915      2639  TIP3      OH2           -26.6448005324       35.5056451950       -6.2367999678  W2        2639            0.0000000000
      7916      2639  TIP3      H1            -26.0251605324       34.8291151950       -6.5098799678  W2        2639            0.0000000000
      7917      2639  TIP3      H2            -26.8530605324       35.2877251950       -5.3283099678  W2        2639            0.0000000000
      7918      2640  TIP3      OH2           -29.0729305324       29.8945751950       -4.3442499678  W2        2640            0.0000000000
      7919      2640  TIP3      H1            -28.7691405324       29.2087151950       -4.9388399678  W2        2640            0.0000000000
      7920      2640  TIP3      H2            -28.3515305324       30.0134451950       -3.7264499678  W2        2640            0.0000000000
      7921      2641  TIP3      OH2           -20.4099505324       21.4961051950       -3.4836299678  W2        2641            0.0000000000
      7922      2641  TIP3      H1            -20.3607305324       22.1062251950       -2.7477199678  W2        2641            0.0000000000
      7923      2641  TIP3      H2            -19.9844405324       21.9571951950       -4.2065199678  W2        2641            0.0000000000
      7924      2642  TIP3      OH2           -25.9322305324       24.2888151950       -4.0167699678  W2        2642            0.0000000000
      7925      2642  TIP3      H1            -25.7896405324       23.3425151950       -3.9966099678  W2        2642            0.0000000000
      7926      2642  TIP3      H2            -26.0383305324       24.4957951950       -4.9452799678  W2        2642            0.0000000000
      7927      2643  TIP3      OH2           -32.7774005324       22.3904551950       -6.7442899678  W2        2643            0.0000000000
      7928      2643  TIP3      H1            -32.7342905324       23.2503051950       -7.1626599678  W2        2643            0.0000000000
      7929      2643  TIP3      H2            -33.2349905324       21.8379251950       -7.3779699678  W2        2643            0.0000000000
      7930      2644  TIP3      OH2           -25.0551305324       22.5210151950       -8.3434599678  W2        2644            0.0000000000
      7931      2644  TIP3      H1            -24.4087005324       22.1923351950       -7.7186999678  W2        2644            0.0000000000
      7932      2644  TIP3      H2            -24.5451905324       23.0389151950       -8.9663199678  W2        2644            0.0000000000
      7933      2645  TIP3      OH2           -36.1572505324       24.7870351950       -5.9821499678  W2        2645            0.0000000000
      7934      2645  TIP3      H1            -35.5035905324       24.2372051950       -5.5501399678  W2        2645            0.0000000000
      7935      2645  TIP3      H2            -36.1333205324       24.5129351950       -6.8989499678  W2        2645            0.0000000000
      7936      2646  TIP3      OH2           -31.0008005324       26.3371651950       -6.7669999678  W2        2646            0.0000000000
      7937      2646  TIP3      H1            -30.3847005324       25.8107051950       -6.2575999678  W2        2646            0.0000000000
      7938      2646  TIP3      H2            -31.5869205324       25.6970351950       -7.1706399678  W2        2646            0.0000000000
      7939      2647  TIP3      OH2           -20.0184905324       22.9740251950       -1.2476499678  W2        2647            0.0000000000
      7940      2647  TIP3      H1            -20.7070305324       23.6320951950       -1.3429899678  W2        2647            0.0000000000
      7941      2647  TIP3      H2            -20.0030305324       22.7768151950       -0.3111099678  W2        2647            0.0000000000
      7942      2648  TIP3      OH2           -33.9672105324       21.3082951950       -2.6702099678  W2        2648            0.0000000000
      7943      2648  TIP3      H1            -34.1860405324       21.8383551950       -3.4366099678  W2        2648            0.0000000000
      7944      2648  TIP3      H2            -34.6351205324       21.5348451950       -2.0230699678  W2        2648            0.0000000000
      7945      2649  TIP3      OH2           -26.5982305324       30.8084051950       -9.1262999678  W2        2649            0.0000000000
      7946      2649  TIP3      H1            -26.8937205324       30.4856351950       -9.9776099678  W2        2649            0.0000000000
      7947      2649  TIP3      H2            -26.9224505324       31.7080751950       -9.0850399678  W2        2649            0.0000000000
      7948      2650  TIP3      OH2           -31.3980705324       28.9838651950       -2.3828399678  W2        2650            0.0000000000
      7949      2650  TIP3      H1            -32.1381605324       29.5820151950       -2.2793199678  W2        2650            0.0000000000
      7950      2650  TIP3      H2            -30.6841205324       29.5378251950       -2.6984799678  W2        2650            0.0000000000
      7951      2651  TIP3      OH2           -23.2912905324       21.8119451950       -6.3628699678  W2        2651            0.0000000000
      7952      2651  TIP3      H1            -23.5064905324       21.0462851950       -5.8302699678  W2        2651            0.0000000000
      7953      2651  TIP3      H2            -22.6355505324       22.2844051950       -5.8500199678  W2        2651            0.0000000000
      7954      2652  TIP3      OH2           -34.3734805324       23.2004751950       -4.7179899678  W2        2652            0.0000000000
      7955      2652  TIP3      H1            -33.7598505324       23.8332351950       -4.3447499678  W2        2652            0.0000000000
      7956      2652  TIP3      H2            -33.8614105324       22.7279751950       -5.3742999678  W2        2652            0.0000000000
      7957      2653  TIP3      OH2           -32.9906405324       30.9481651950       -1.5956899678  W2        2653            0.0000000000
      7958      2653  TIP3      H1            -32.9958805324       31.8275151950       -1.9737599678  W2        2653            0.0000000000
      7959      2653  TIP3      H2            -33.8442305324       30.8645751950       -1.1706999678  W2        2653            0.0000000000
      7960      2654  TIP3      OH2           -36.8695505324       30.6189551950      -10.8137599678  W2        2654            0.0000000000
      7961      2654  TIP3      H1            -37.1414605324       30.8480551950      -11.7024699678  W2        2654            0.0000000000
      7962      2654  TIP3      H2            -36.8239805324       31.4568351950      -10.3532299678  W2        2654            0.0000000000
      7963      2655  TIP3      OH2           -23.2445805324       32.2405451950       -4.1009099678  W2        2655            0.0000000000
      7964      2655  TIP3      H1            -24.1862105324       32.2989351950       -3.9392199678  W2        2655            0.0000000000
      7965      2655  TIP3      H2            -22.9679705324       33.1465951950       -4.2379399678  W2        2655            0.0000000000
      7966      2656  TIP3      OH2           -22.9438805324       20.5270751950       -2.6835199678  W2        2656            0.0000000000
      7967      2656  TIP3      H1            -23.6799605324       21.1377851950       -2.7213899678  W2        2656            0.0000000000
      7968      2656  TIP3      H2            -22.2604805324       20.9419751950       -3.2098799678  W2        2656            0.0000000000
      7969      2657  TIP3      OH2           -29.9407405324       18.6138051950       -5.2177199678  W2        2657            0.0000000000
      7970      2657  TIP3      H1            -30.0583205324       17.6654051950       -5.2718899678  W2        2657            0.0000000000
      7971      2657  TIP3      H2            -30.7957305324       18.9464151950       -4.9446099678  W2        2657            0.0000000000
      7972      2658  TIP3      OH2           -24.9924605324       34.0218951950       -7.4757499678  W2        2658            0.0000000000
      7973      2658  TIP3      H1            -24.5672305324       33.3146851950       -7.9607899678  W2        2658            0.0000000000
      7974      2658  TIP3      H2            -24.6754605324       34.8231651950       -7.8925299678  W2        2658            0.0000000000
      7975      2659  TIP3      OH2           -23.8328105324       31.9227451950       -8.9670899678  W2        2659            0.0000000000
      7976      2659  TIP3      H1            -24.0903305324       31.2327551950       -9.5784999678  W2        2659            0.0000000000
      7977      2659  TIP3      H2            -23.7617305324       31.4798651950       -8.1214999678  W2        2659            0.0000000000
      7978      2660  TIP3      OH2           -22.1467905324       30.4894151950       -0.4897399678  W2        2660            0.0000000000
      7979      2660  TIP3      H1            -22.0071605324       29.8976651950       -1.2290399678  W2        2660            0.0000000000
      7980      2660  TIP3      H2            -21.9795105324       31.3620051950       -0.8458599678  W2        2660            0.0000000000
      7981      2661  TIP3      OH2           -27.6742505324       27.4513651950      -10.7171399678  W2        2661            0.0000000000
      7982      2661  TIP3      H1            -28.3857005324       27.9863351950      -11.0690899678  W2        2661            0.0000000000
      7983      2661  TIP3      H2            -26.9832905324       27.5065751950      -11.3772499678  W2        2661            0.0000000000
      7984      2662  TIP3      OH2           -27.6203305324       25.9087951950      -13.6786399678  W2        2662            0.0000000000
      7985      2662  TIP3      H1            -26.9193405324       25.9314851950      -13.0272399678  W2        2662            0.0000000000
      7986      2662  TIP3      H2            -27.3180405324       25.2807651950      -14.3347099678  W2        2662            0.0000000000
      7987      2663  TIP3      OH2           -20.3048605324       26.8292151950       -2.4236999678  W2        2663            0.0000000000
      7988      2663  TIP3      H1            -20.9574505324       27.5237751950       -2.3346099678  W2        2663            0.0000000000
      7989      2663  TIP3      H2            -19.8398305324       27.0393051950       -3.2335399678  W2        2663            0.0000000000
      7990      2664  TIP3      OH2           -24.2684805324       27.6606951950       -9.7655499678  W2        2664            0.0000000000
      7991      2664  TIP3      H1            -25.0003805324       27.8890651950       -9.1924899678  W2        2664            0.0000000000
      7992      2664  TIP3      H2            -23.8212605324       26.9469651950       -9.3107999678  W2        2664            0.0000000000
      7993      2665  TIP3      OH2           -24.3711305324       25.8349551950       -0.6978499678  W2        2665            0.0000000000
      7994      2665  TIP3      H1            -24.2912205324       26.5983951950       -0.1259999678  W2        2665            0.0000000000
      7995      2665  TIP3      H2            -24.9723605324       26.1141951950       -1.3883399678  W2        2665            0.0000000000
      7996      2666  TIP3      OH2           -32.6231105324       28.2913151950       -7.8830499678  W2        2666            0.0000000000
      7997      2666  TIP3      H1            -32.9535905324       27.9206551950       -8.7013499678  W2        2666            0.0000000000
      7998      2666  TIP3      H2            -32.0347005324       27.6207151950       -7.5362199678  W2        2666            0.0000000000
      7999      2667  TIP3      OH2           -31.2563605324       31.7193751950       -5.2018299678  W2        2667            0.0000000000
      8000      2667  TIP3      H1            -31.3512305324       31.1406851950       -5.9583699678  W2        2667            0.0000000000
      8001      2667  TIP3      H2            -30.5270005324       31.3479451950       -4.7055499678  W2        2667            0.0000000000
      8002      2668  TIP3      OH2           -32.2565605324       27.0598751950       -4.2495499678  W2        2668            0.0000000000
      8003      2668  TIP3      H1            -31.6913105324       27.1812951950       -5.0124299678  W2        2668            0.0000000000
      8004      2668  TIP3      H2            -31.9376705324       27.6973751950       -3.6106999678  W2        2668            0.0000000000
      8005      2669  TIP3      OH2           -25.9473405324       32.5630651950       -3.5154999678  W2        2669            0.0000000000
      8006      2669  TIP3      H1            -26.1876805324       33.2253751950       -2.8675799678  W2        2669            0.0000000000
      8007      2669  TIP3      H2            -26.1455205324       31.7285851950       -3.0905399678  W2        2669            0.0000000000
      8008      2670  TIP3      OH2           -31.3764905324       31.4591451950        0.4676400322  W2        2670            0.0000000000
      8009      2670  TIP3      H1            -31.6877405324       32.2414651950        0.9229600322  W2        2670            0.0000000000
      8010      2670  TIP3      H2            -32.0264705324       31.3060551950       -0.2181599678  W2        2670            0.0000000000
      8011      2671  TIP3      OH2           -25.3975305324       26.8229851950      -12.0804299678  W2        2671            0.0000000000
      8012      2671  TIP3      H1            -24.8179805324       26.9730151950      -11.3335399678  W2        2671            0.0000000000
      8013      2671  TIP3      H2            -24.9835305324       27.2937251950      -12.8037899678  W2        2671            0.0000000000
      8014      2672  TIP3      OH2           -34.4565005324       27.6572551950       -0.3037899678  W2        2672            0.0000000000
      8015      2672  TIP3      H1            -34.3861805324       28.3079351950        0.3947100322  W2        2672            0.0000000000
      8016      2672  TIP3      H2            -35.3472805324       27.7600051950       -0.6386999678  W2        2672            0.0000000000
      8017      2673  TIP3      OH2           -27.6710405324       33.5598351950       -8.6451199678  W2        2673            0.0000000000
      8018      2673  TIP3      H1            -27.1972805324       33.8554651950       -7.8676999678  W2        2673            0.0000000000
      8019      2673  TIP3      H2            -28.2341105324       34.2979951950       -8.8781599678  W2        2673            0.0000000000
      8020      2674  TIP3      OH2           -33.1369005324       33.5306451950        1.2310200322  W2        2674            0.0000000000
      8021      2674  TIP3      H1            -33.1293705324       33.3946151950        0.2835700322  W2        2674            0.0000000000
      8022      2674  TIP3      H2            -34.0528605324       33.4134551950        1.4830200322  W2        2674            0.0000000000
      8023      2675  TIP3      OH2           -21.6986905324       18.5730251950      -12.2674599678  W2        2675            0.0000000000
      8024      2675  TIP3      H1            -22.5986205324       18.7119251950      -11.9723999678  W2        2675            0.0000000000
      8025      2675  TIP3      H2            -21.4468505324       19.4044851950      -12.6692899678  W2        2675            0.0000000000
      8026      2676  TIP3      OH2           -33.6328405324       27.3607451950      -10.2937699678  W2        2676            0.0000000000
      8027      2676  TIP3      H1            -33.9247105324       28.1289151950      -10.7846399678  W2        2676            0.0000000000
      8028      2676  TIP3      H2            -34.3073205324       26.7013651950      -10.4566299678  W2        2676            0.0000000000
      8029      2677  TIP3      OH2           -20.5095505324       32.9392651950      -13.8910699678  W2        2677            0.0000000000
      8030      2677  TIP3      H1            -20.4362005324       33.8782851950      -13.7205399678  W2        2677            0.0000000000
      8031      2677  TIP3      H2            -19.6040405324       32.6341251950      -13.9473399678  W2        2677            0.0000000000
      8032      2678  TIP3      OH2           -37.5398305324       29.7236651950       -1.4787899678  W2        2678            0.0000000000
      8033      2678  TIP3      H1            -38.0409905324       29.6956051950       -2.2938199678  W2        2678            0.0000000000
      8034      2678  TIP3      H2            -37.5344605324       28.8179851950       -1.1690599678  W2        2678            0.0000000000
      8035      2679  TIP3      OH2           -37.7895605324       32.5040451950       -4.5947699678  W2        2679            0.0000000000
      8036      2679  TIP3      H1            -36.8435005324       32.3597451950       -4.6138199678  W2        2679            0.0000000000
      8037      2679  TIP3      H2            -37.9019305324       33.2883251950       -4.0576499678  W2        2679            0.0000000000
      8038      2680  TIP3      OH2           -19.5917105324       33.1700151950        1.0876000322  W2        2680            0.0000000000
      8039      2680  TIP3      H1            -19.6410305324       32.2148251950        1.0503600322  W2        2680            0.0000000000
      8040      2680  TIP3      H2            -20.4184805324       33.4375451950        1.4889800322  W2        2680            0.0000000000
      8041      2681  TIP3      OH2           -28.6133105324       32.7439351950       -0.0362599678  W2        2681            0.0000000000
      8042      2681  TIP3      H1            -28.5258505324       33.5703951950        0.4386500322  W2        2681            0.0000000000
      8043      2681  TIP3      H2            -29.4768005324       32.4143151950        0.2126700322  W2        2681            0.0000000000
      8044      2682  TIP3      OH2           -28.1987305324       36.5163051950      -10.2301999678  W2        2682            0.0000000000
      8045      2682  TIP3      H1            -28.2741305324       36.3950251950      -11.1766799678  W2        2682            0.0000000000
      8046      2682  TIP3      H2            -28.1658605324       37.4655751950      -10.1117399678  W2        2682            0.0000000000
      8047      2683  TIP3      OH2           -34.5453505324       35.3050051950       -8.4492999678  W2        2683            0.0000000000
      8048      2683  TIP3      H1            -34.3933105324       34.9570451950       -7.5706499678  W2        2683            0.0000000000
      8049      2683  TIP3      H2            -35.3963105324       34.9487351950       -8.7045799678  W2        2683            0.0000000000
      8050      2684  TIP3      OH2           -25.0971305324       35.6703251950      -13.2279599678  W2        2684            0.0000000000
      8051      2684  TIP3      H1            -24.7222905324       34.9259351950      -13.6986999678  W2        2684            0.0000000000
      8052      2684  TIP3      H2            -25.0927605324       35.4003851950      -12.3096299678  W2        2684            0.0000000000
      8053      2685  TIP3      OH2           -25.4283205324       35.5960351950      -10.4787399678  W2        2685            0.0000000000
      8054      2685  TIP3      H1            -26.3633405324       35.6962251950      -10.3000399678  W2        2685            0.0000000000
      8055      2685  TIP3      H2            -25.1481305324       34.8866351950       -9.9004199678  W2        2685            0.0000000000
      8056      2686  TIP3      OH2           -22.4397305324       24.6632651950        1.5678200322  W2        2686            0.0000000000
      8057      2686  TIP3      H1            -22.8470505324       25.1438251950        0.8471500322  W2        2686            0.0000000000
      8058      2686  TIP3      H2            -22.3991605324       23.7578651950        1.2599000322  W2        2686            0.0000000000
      8059      2687  TIP3      OH2           -35.2907805324       31.0472051950       -0.4355099678  W2        2687            0.0000000000
      8060      2687  TIP3      H1            -35.0746505324       30.6857651950        0.4240700322  W2        2687            0.0000000000
      8061      2687  TIP3      H2            -36.1463105324       30.6725851950       -0.6451599678  W2        2687            0.0000000000
      8062      2688  TIP3      OH2           -32.6719805324       19.5172551950       -4.4400899678  W2        2688            0.0000000000
      8063      2688  TIP3      H1            -33.5336105324       19.4300751950       -4.8477999678  W2        2688            0.0000000000
      8064      2688  TIP3      H2            -32.6944105324       20.3732651950       -4.0123299678  W2        2688            0.0000000000
      8065      2689  TIP3      OH2           -28.0092005324       19.2392951950       -1.0653899678  W2        2689            0.0000000000
      8066      2689  TIP3      H1            -27.5888905324       18.8240051950       -0.3123299678  W2        2689            0.0000000000
      8067      2689  TIP3      H2            -28.9422405324       19.0606251950       -0.9481899678  W2        2689            0.0000000000
      8068      2690  TIP3      OH2           -24.6827105324       22.9948151950       -0.2119399678  W2        2690            0.0000000000
      8069      2690  TIP3      H1            -25.1967605324       22.8690351950        0.5856600322  W2        2690            0.0000000000
      8070      2690  TIP3      H2            -24.8382405324       23.9071251950       -0.4563199678  W2        2690            0.0000000000
      8071      2691  TIP3      OH2           -23.9202205324       27.8558151950      -14.4506399678  W2        2691            0.0000000000
      8072      2691  TIP3      H1            -23.8781405324       27.6332051950      -15.3806399678  W2        2691            0.0000000000
      8073      2691  TIP3      H2            -23.0710105324       28.2545251950      -14.2606499678  W2        2691            0.0000000000
      8074      2692  TIP3      OH2           -28.3474705324       21.7316351950      -13.7803099678  W2        2692            0.0000000000
      8075      2692  TIP3      H1            -28.6009905324       21.7507951950      -12.8574999678  W2        2692            0.0000000000
      8076      2692  TIP3      H2            -28.6042605324       20.8601751950      -14.0816899678  W2        2692            0.0000000000
      8077      2693  TIP3      OH2           -32.5809705324       24.4827051950       -3.3450699678  W2        2693            0.0000000000
      8078      2693  TIP3      H1            -33.2227605324       24.4424351950       -2.6360599678  W2        2693            0.0000000000
      8079      2693  TIP3      H2            -32.5437705324       25.4091751950       -3.5827699678  W2        2693            0.0000000000
      8080      2694  TIP3      OH2           -32.5840605324       24.7037151950       -8.4330699678  W2        2694            0.0000000000
      8081      2694  TIP3      H1            -33.4767705324       24.3633251950       -8.4916899678  W2        2694            0.0000000000
      8082      2694  TIP3      H2            -32.1334005324       24.3268051950       -9.1887499678  W2        2694            0.0000000000
      8083      2695  TIP3      OH2           -27.0485105324       25.1197451950       -9.6159899678  W2        2695            0.0000000000
      8084      2695  TIP3      H1            -27.4574805324       25.9346051950       -9.9075099678  W2        2695            0.0000000000
      8085      2695  TIP3      H2            -26.3278905324       24.9797551950      -10.2302799678  W2        2695            0.0000000000
      8086      2696  TIP3      OH2           -27.9463505324       25.2953851950        1.8720800322  W2        2696            0.0000000000
      8087      2696  TIP3      H1            -28.5089705324       24.5905451950        2.1928600322  W2        2696            0.0000000000
      8088      2696  TIP3      H2            -27.1200105324       25.1745751950        2.3398400322  W2        2696            0.0000000000
      8089      2697  TIP3      OH2           -26.0437405324       24.5657851950       -6.8020199678  W2        2697            0.0000000000
      8090      2697  TIP3      H1            -26.2392905324       25.1714651950       -7.5169599678  W2        2697            0.0000000000
      8091      2697  TIP3      H2            -25.8624805324       23.7323051950       -7.2363899678  W2        2697            0.0000000000
      8092      2698  TIP3      OH2           -34.8309205324       24.8030551950       -1.4778699678  W2        2698            0.0000000000
      8093      2698  TIP3      H1            -34.8689805324       25.2032151950       -0.6091599678  W2        2698            0.0000000000
      8094      2698  TIP3      H2            -35.3218105324       23.9862951950       -1.3875799678  W2        2698            0.0000000000
      8095      2699  TIP3      OH2           -31.4651805324       22.1772851950      -14.6792699678  W2        2699            0.0000000000
      8096      2699  TIP3      H1            -31.8961105324       21.7322951950      -13.9495299678  W2        2699            0.0000000000
      8097      2699  TIP3      H2            -32.1833105324       22.5489151950      -15.1915199678  W2        2699            0.0000000000
      8098      2700  TIP3      OH2           -38.2228405324       21.9192351950       -7.6273999678  W2        2700            0.0000000000
      8099      2700  TIP3      H1            -37.5920705324       21.8904451950       -6.9080099678  W2        2700            0.0000000000
      8100      2700  TIP3      H2            -37.7734105324       21.4941051950       -8.3578099678  W2        2700            0.0000000000
      8101      2701  TIP3      OH2           -36.9486305324       22.6654351950      -12.2033599678  W2        2701            0.0000000000
      8102      2701  TIP3      H1            -36.4744605324       23.2564251950      -12.7882699678  W2        2701            0.0000000000
      8103      2701  TIP3      H2            -37.6659905324       23.1957251950      -11.8563499678  W2        2701            0.0000000000
      8104      2702  TIP3      OH2           -26.7798205324       26.2039151950       -2.1307799678  W2        2702            0.0000000000
      8105      2702  TIP3      H1            -26.4563405324       25.5728851950       -2.7737299678  W2        2702            0.0000000000
      8106      2702  TIP3      H2            -27.2198905324       25.6691351950       -1.4700399678  W2        2702            0.0000000000
      8107      2703  TIP3      OH2           -30.0025305324       22.1314651950       -7.3466599678  W2        2703            0.0000000000
      8108      2703  TIP3      H1            -30.9134205324       22.1881451950       -7.0580599678  W2        2703            0.0000000000
      8109      2703  TIP3      H2            -29.4972405324       22.0710151950       -6.5359399678  W2        2703            0.0000000000
      8110      2704  TIP3      OH2           -35.1741905324       23.7600951950       -8.5198999678  W2        2704            0.0000000000
      8111      2704  TIP3      H1            -36.0633905324       23.8596451950       -8.8599399678  W2        2704            0.0000000000
      8112      2704  TIP3      H2            -34.8777005324       22.9183951950       -8.8661099678  W2        2704            0.0000000000
      8113      2705  TIP3      OH2           -31.5210105324       23.7603551950      -10.8634399678  W2        2705            0.0000000000
      8114      2705  TIP3      H1            -30.5894605324       23.8893551950      -10.6851299678  W2        2705            0.0000000000
      8115      2705  TIP3      H2            -31.7359805324       24.4297851950      -11.5129699678  W2        2705            0.0000000000
      8116      2706  TIP3      OH2           -25.5973405324       21.3660951950       -4.0824799678  W2        2706            0.0000000000
      8117      2706  TIP3      H1            -26.2741805324       21.4974051950       -3.4185099678  W2        2706            0.0000000000
      8118      2706  TIP3      H2            -26.0828505324       21.2110451950       -4.8927099678  W2        2706            0.0000000000
      8119      2707  TIP3      OH2           -32.8469905324       24.9545751950      -13.2968299678  W2        2707            0.0000000000
      8120      2707  TIP3      H1            -33.3894805324       24.5749551950      -13.9880699678  W2        2707            0.0000000000
      8121      2707  TIP3      H2            -32.0135005324       25.1490451950      -13.7254199678  W2        2707            0.0000000000
      8122      2708  TIP3      OH2           -22.3098305324       37.0376351950        2.1942800322  W2        2708            0.0000000000
      8123      2708  TIP3      H1            -22.1099605324       37.4618251950        1.3598100322  W2        2708            0.0000000000
      8124      2708  TIP3      H2            -21.6544605324       37.3814551950        2.8013200322  W2        2708            0.0000000000
      8125      2709  TIP3      OH2           -34.7118505324       29.5117651950        1.8023300322  W2        2709            0.0000000000
      8126      2709  TIP3      H1            -33.9796105324       29.7663551950        2.3637800322  W2        2709            0.0000000000
      8127      2709  TIP3      H2            -35.4919805324       29.7163051950        2.3178700322  W2        2709            0.0000000000
      8128      2710  TIP3      OH2           -28.6825605324       24.9187651950       -5.4596999678  W2        2710            0.0000000000
      8129      2710  TIP3      H1            -28.1182205324       24.3724251950       -6.0067399678  W2        2710            0.0000000000
      8130      2710  TIP3      H2            -28.8302205324       24.3969551950       -4.6709399678  W2        2710            0.0000000000
      8131      2711  TIP3      OH2           -33.6805905324       21.0553751950       -9.0412199678  W2        2711            0.0000000000
      8132      2711  TIP3      H1            -33.9976405324       20.1529051950       -9.0766799678  W2        2711            0.0000000000
      8133      2711  TIP3      H2            -32.8991805324       21.0571151950       -9.5940599678  W2        2711            0.0000000000
      8134      2712  TIP3      OH2           -30.0559705324       23.3073751950       -3.0456599678  W2        2712            0.0000000000
      8135      2712  TIP3      H1            -30.8914405324       23.7613251950       -2.9354199678  W2        2712            0.0000000000
      8136      2712  TIP3      H2            -29.5319105324       23.5832251950       -2.2936699678  W2        2712            0.0000000000
      8137      2713  TIP3      OH2           -29.5117105324       29.5201451950      -11.3610199678  W2        2713            0.0000000000
      8138      2713  TIP3      H1            -30.2566105324       29.0126751950      -11.6832299678  W2        2713            0.0000000000
      8139      2713  TIP3      H2            -29.6459905324       29.5689451950      -10.4145399678  W2        2713            0.0000000000
      8140      2714  TIP3      OH2           -22.3618205324       28.6529651950       -2.5742599678  W2        2714            0.0000000000
      8141      2714  TIP3      H1            -21.7199405324       29.1095951950       -3.1180399678  W2        2714            0.0000000000
      8142      2714  TIP3      H2            -23.1921305324       28.7662051950       -3.0368499678  W2        2714            0.0000000000
      8143      2715  TIP3      OH2           -25.6140305324       22.3341351950      -13.1617599678  W2        2715            0.0000000000
      8144      2715  TIP3      H1            -26.5526105324       22.4456951950      -13.3128799678  W2        2715            0.0000000000
      8145      2715  TIP3      H2            -25.3168205324       23.1908251950      -12.8551899678  W2        2715            0.0000000000
      8146      2716  TIP3      OH2           -27.9925005324       29.7044751950       -0.1241099678  W2        2716            0.0000000000
      8147      2716  TIP3      H1            -28.3378905324       29.3227151950        0.6828500322  W2        2716            0.0000000000
      8148      2716  TIP3      H2            -28.1924905324       30.6378351950       -0.0528199678  W2        2716            0.0000000000
      8149      2717  TIP3      OH2           -24.8956805324       24.2014051950      -11.5010199678  W2        2717            0.0000000000
      8150      2717  TIP3      H1            -24.0037805324       24.0639051950      -11.1818999678  W2        2717            0.0000000000
      8151      2717  TIP3      H2            -24.8393205324       24.9920151950      -12.0376699678  W2        2717            0.0000000000
      8152      2718  TIP3      OH2           -34.3868805324       28.8151451950       -5.5912299678  W2        2718            0.0000000000
      8153      2718  TIP3      H1            -33.6421605324       28.8127151950       -6.1925799678  W2        2718            0.0000000000
      8154      2718  TIP3      H2            -34.3092205324       27.9915251950       -5.1097199678  W2        2718            0.0000000000
      8155      2719  TIP3      OH2           -27.3863005324       30.9785751950      -12.3355599678  W2        2719            0.0000000000
      8156      2719  TIP3      H1            -27.6814605324       31.8053651950      -11.9540799678  W2        2719            0.0000000000
      8157      2719  TIP3      H2            -28.0893005324       30.3592651950      -12.1394199678  W2        2719            0.0000000000
      8158      2720  TIP3      OH2           -37.3789105324       27.2758351950       -0.2763799678  W2        2720            0.0000000000
      8159      2720  TIP3      H1            -37.1560505324       26.8577951950        0.5553700322  W2        2720            0.0000000000
      8160      2720  TIP3      H2            -37.9809005324       26.6633351950       -0.6990999678  W2        2720            0.0000000000
      8161      2721  TIP3      OH2           -30.3624205324       26.7928251950        1.9365900322  W2        2721            0.0000000000
      8162      2721  TIP3      H1            -30.6583405324       26.6271251950        1.0415000322  W2        2721            0.0000000000
      8163      2721  TIP3      H2            -29.4309005324       26.5728551950        1.9259800322  W2        2721            0.0000000000
      8164      2722  TIP3      OH2           -25.7421405324       32.1660251950       -0.1736099678  W2        2722            0.0000000000
      8165      2722  TIP3      H1            -26.6427105324       32.3492851950       -0.4412199678  W2        2722            0.0000000000
      8166      2722  TIP3      H2            -25.7080305324       32.4249551950        0.7472700322  W2        2722            0.0000000000
      8167      2723  TIP3      OH2           -20.0108105324       24.4108151950      -11.8063499678  W2        2723            0.0000000000
      8168      2723  TIP3      H1            -20.5651805324       24.0146151950      -12.4785999678  W2        2723            0.0000000000
      8169      2723  TIP3      H2            -19.9104505324       25.3213351950      -12.0840199678  W2        2723            0.0000000000
      8170      2724  TIP3      OH2           -20.0476105324       30.2109851950        1.0308000322  W2        2724            0.0000000000
      8171      2724  TIP3      H1            -20.8987605324       30.4493651950        0.6634400322  W2        2724            0.0000000000
      8172      2724  TIP3      H2            -19.4572705324       30.1943051950        0.2775100322  W2        2724            0.0000000000
      8173      2725  TIP3      OH2           -21.7156405324       33.1968551950      -11.3411399678  W2        2725            0.0000000000
      8174      2725  TIP3      H1            -22.0885305324       32.3712351950      -11.0320799678  W2        2725            0.0000000000
      8175      2725  TIP3      H2            -21.4382905324       33.0137951950      -12.2387999678  W2        2725            0.0000000000
      8176      2726  TIP3      OH2           -24.5552505324       28.0048051950       -4.3199499678  W2        2726            0.0000000000
      8177      2726  TIP3      H1            -25.4835605324       27.7729951950       -4.3470199678  W2        2726            0.0000000000
      8178      2726  TIP3      H2            -24.1041405324       27.2277851950       -4.6500699678  W2        2726            0.0000000000
      8179      2727  TIP3      OH2           -32.0119405324       32.3329651950       -8.1870799678  W2        2727            0.0000000000
      8180      2727  TIP3      H1            -31.4847205324       33.1064051950       -8.3871999678  W2        2727            0.0000000000
      8181      2727  TIP3      H2            -32.8920905324       32.5578851950       -8.4886799678  W2        2727            0.0000000000
      8182      2728  TIP3      OH2           -36.2571705324       27.1953751950      -13.5998399678  W2        2728            0.0000000000
      8183      2728  TIP3      H1            -35.6411805324       27.8220951950      -13.2203599678  W2        2728            0.0000000000
      8184      2728  TIP3      H2            -37.1189105324       27.5113551950      -13.3281899678  W2        2728            0.0000000000
      8185      2729  TIP3      OH2           -30.5847105324       29.9959551950       -8.6106499678  W2        2729            0.0000000000
      8186      2729  TIP3      H1            -30.8257105324       30.9213951950       -8.5691199678  W2        2729            0.0000000000
      8187      2729  TIP3      H2            -31.3253505324       29.5370851950       -8.2142599678  W2        2729            0.0000000000
      8188      2730  TIP3      OH2           -30.0700505324       34.1453151950       -2.2955399678  W2        2730            0.0000000000
      8189      2730  TIP3      H1            -29.7075805324       34.9998751950       -2.5290999678  W2        2730            0.0000000000
      8190      2730  TIP3      H2            -29.5385305324       33.8534751950       -1.5549099678  W2        2730            0.0000000000
      8191      2731  TIP3      OH2           -31.9016305324       35.0177151950       -9.0654299678  W2        2731            0.0000000000
      8192      2731  TIP3      H1            -32.8515805324       35.1234551950       -9.0140999678  W2        2731            0.0000000000
      8193      2731  TIP3      H2            -31.5498205324       35.8384551950       -8.7206799678  W2        2731            0.0000000000
      8194      2732  TIP3      OH2           -26.5259705324       30.2443851950       -2.5949799678  W2        2732            0.0000000000
      8195      2732  TIP3      H1            -26.9518405324       30.0165551950       -1.7685799678  W2        2732            0.0000000000
      8196      2732  TIP3      H2            -25.9453905324       29.5055651950       -2.7774499678  W2        2732            0.0000000000
      8197      2733  TIP3      OH2           -24.3230805324       31.1734351950      -13.5210799678  W2        2733            0.0000000000
      8198      2733  TIP3      H1            -23.9697705324       30.7934151950      -12.7167299678  W2        2733            0.0000000000
      8199      2733  TIP3      H2            -25.2717305324       31.0799151950      -13.4341499678  W2        2733            0.0000000000
      8200      2734  TIP3      OH2           -23.8675505324       34.7963351950       -0.1254999678  W2        2734            0.0000000000
      8201      2734  TIP3      H1            -24.4692305324       34.2406251950       -0.6208699678  W2        2734            0.0000000000
      8202      2734  TIP3      H2            -23.5861805324       35.4633151950       -0.7517599678  W2        2734            0.0000000000
      8203      2735  TIP3      OH2           -19.8196405324       35.6526851950      -13.3200599678  W2        2735            0.0000000000
      8204      2735  TIP3      H1            -19.0758505324       36.2387351950      -13.4598999678  W2        2735            0.0000000000
      8205      2735  TIP3      H2            -20.5138305324       36.2212651950      -12.9868199678  W2        2735            0.0000000000
      8206      2736  TIP3      OH2           -35.7449605324       22.0291051950       -0.7182399678  W2        2736            0.0000000000
      8207      2736  TIP3      H1            -36.6377305324       22.3676451950       -0.7858399678  W2        2736            0.0000000000
      8208      2736  TIP3      H2            -35.8436805324       21.1737151950       -0.3001599678  W2        2736            0.0000000000
      8209      2737  TIP3      OH2           -23.4571505324       29.8456351950      -11.2942899678  W2        2737            0.0000000000
      8210      2737  TIP3      H1            -23.7343905324       29.1175651950      -10.7381799678  W2        2737            0.0000000000
      8211      2737  TIP3      H2            -22.5298505324       29.9648351950      -11.0890299678  W2        2737            0.0000000000
      8212      2738  TIP3      OH2           -36.0937605324       33.8335451950       -2.2832999678  W2        2738            0.0000000000
      8213      2738  TIP3      H1            -35.8767305324       32.9017851950       -2.3143299678  W2        2738            0.0000000000
      8214      2738  TIP3      H2            -35.8474105324       34.1080451950       -1.4000199678  W2        2738            0.0000000000
      8215      2739  TIP3      OH2           -30.2323005324       32.2850451950      -15.0740799678  W2        2739            0.0000000000
      8216      2739  TIP3      H1            -29.9933205324       31.5368551950      -15.6211899678  W2        2739            0.0000000000
      8217      2739  TIP3      H2            -30.5011705324       31.8972151950      -14.2412999678  W2        2739            0.0000000000
      8218      2740  TIP3      OH2           -31.2952405324       31.8554251950      -12.6178199678  W2        2740            0.0000000000
      8219      2740  TIP3      H1            -31.1484405324       31.3354051950      -11.8277299678  W2        2740            0.0000000000
      8220      2740  TIP3      H2            -31.2980705324       32.7621851950      -12.3112299678  W2        2740            0.0000000000
      8221      2741  TIP3      OH2           -34.8421305324       29.1077551950      -12.1072799678  W2        2741            0.0000000000
      8222      2741  TIP3      H1            -35.5282005324       29.4600051950      -11.5403099678  W2        2741            0.0000000000
      8223      2741  TIP3      H2            -34.3193405324       29.8707151950      -12.3538499678  W2        2741            0.0000000000
      8224      2742  TIP3      OH2           -27.0106205324       21.7701351950       -1.8283799678  W2        2742            0.0000000000
      8225      2742  TIP3      H1            -26.3118305324       21.8440051950       -1.1784099678  W2        2742            0.0000000000
      8226      2742  TIP3      H2            -27.3914805324       20.9056351950       -1.6740899678  W2        2742            0.0000000000
      8227      2743  TIP3      OH2           -26.2261305324       21.4223051950      -10.7311499678  W2        2743            0.0000000000
      8228      2743  TIP3      H1            -26.0063005324       21.8938451950      -11.5346099678  W2        2743            0.0000000000
      8229      2743  TIP3      H2            -25.6677305324       21.8165651950      -10.0610899678  W2        2743            0.0000000000
      8230      2744  TIP3      OH2           -28.5575205324       33.5527851950      -11.8683999678  W2        2744            0.0000000000
      8231      2744  TIP3      H1            -29.3739105324       34.0497551950      -11.8159699678  W2        2744            0.0000000000
      8232      2744  TIP3      H2            -28.0278905324       34.0281351950      -12.5085199678  W2        2744            0.0000000000
      8233      2745  TIP3      OH2           -29.0261405324       23.1501851950       -9.8963099678  W2        2745            0.0000000000
      8234      2745  TIP3      H1            -28.2138805324       23.6545051950       -9.8501399678  W2        2745            0.0000000000
      8235      2745  TIP3      H2            -29.2708405324       23.0051551950       -8.9823499678  W2        2745            0.0000000000
      8236      2746  TIP3      OH2           -28.4905005324       24.1364551950       -0.7116499678  W2        2746            0.0000000000
      8237      2746  TIP3      H1            -28.3714705324       24.7099951950        0.0453900322  W2        2746            0.0000000000
      8238      2746  TIP3      H2            -27.8350405324       23.4483951950       -0.5968699678  W2        2746            0.0000000000
      8239      2747  TIP3      OH2           -28.1424705324       20.2314851950       -8.9581999678  W2        2747            0.0000000000
      8240      2747  TIP3      H1            -28.4891205324       20.8485451950       -8.3137699678  W2        2747            0.0000000000
      8241      2747  TIP3      H2            -27.4837805324       20.7320551950       -9.4396499678  W2        2747            0.0000000000
      8242      2748  TIP3      OH2           -31.2192105324       34.5965051950      -11.8867099678  W2        2748            0.0000000000
      8243      2748  TIP3      H1            -31.0583405324       35.3962551950      -12.3874499678  W2        2748            0.0000000000
      8244      2748  TIP3      H2            -31.4164305324       34.9031051950      -11.0016499678  W2        2748            0.0000000000
      8245      2749  TIP3      OH2           -32.4847705324       21.2944251950      -12.2709499678  W2        2749            0.0000000000
      8246      2749  TIP3      H1            -32.5682905324       22.1827351950      -11.9243099678  W2        2749            0.0000000000
      8247      2749  TIP3      H2            -31.5947405324       21.0290951950      -12.0392699678  W2        2749            0.0000000000
      8248      2750  TIP3      OH2           -22.2859205324       22.0434851950        0.1233200322  W2        2750            0.0000000000
      8249      2750  TIP3      H1            -23.2023405324       22.3056551950        0.0356900322  W2        2750            0.0000000000
      8250      2750  TIP3      H2            -21.9504205324       22.0403851950       -0.7731499678  W2        2750            0.0000000000
      8251      2751  TIP3      OH2           -23.6838205324       25.7935851950       -5.7809499678  W2        2751            0.0000000000
      8252      2751  TIP3      H1            -24.4813805324       25.3786051950       -6.1094499678  W2        2751            0.0000000000
      8253      2751  TIP3      H2            -23.2387105324       25.1029551950       -5.2898999678  W2        2751            0.0000000000
      8254      2752  TIP3      OH2           -34.2262405324       31.7216451950      -13.2104999678  W2        2752            0.0000000000
      8255      2752  TIP3      H1            -33.6340905324       32.4211251950      -12.9342599678  W2        2752            0.0000000000
      8256      2752  TIP3      H2            -33.7669405324       31.2885951950      -13.9300399678  W2        2752            0.0000000000
      8257      2753  TIP3      OH2           -35.9103205324       24.3859451950      -14.0945599678  W2        2753            0.0000000000
      8258      2753  TIP3      H1            -35.9550605324       25.3252551950      -13.9158599678  W2        2753            0.0000000000
      8259      2753  TIP3      H2            -36.7980005324       24.1504351950      -14.3643499678  W2        2753            0.0000000000
      8260      2754  TIP3      OH2           -22.5973605324       35.0498351950       -4.1585999678  W2        2754            0.0000000000
      8261      2754  TIP3      H1            -22.7529305324       35.7282751950       -4.8156699678  W2        2754            0.0000000000
      8262      2754  TIP3      H2            -21.6647205324       35.1217651950       -3.9555399678  W2        2754            0.0000000000
      8263      2755  TIP3      OH2           -35.1021205324       19.1676051950       -5.4214599678  W2        2755            0.0000000000
      8264      2755  TIP3      H1            -35.3311405324       19.2268551950       -6.3489599678  W2        2755            0.0000000000
      8265      2755  TIP3      H2            -35.5447805324       18.3761551950       -5.1150499678  W2        2755            0.0000000000
      8266      2756  TIP3      OH2           -36.1717905324       33.1083151950       -9.2608799678  W2        2756            0.0000000000
      8267      2756  TIP3      H1            -37.0039305324       33.5805851950       -9.2337399678  W2        2756            0.0000000000
      8268      2756  TIP3      H2            -35.6259605324       33.6180751950       -9.8595699678  W2        2756            0.0000000000
      8269      2757  TIP3      OH2           -36.8834205324       35.7206851950        2.0689200322  W2        2757            0.0000000000
      8270      2757  TIP3      H1            -36.3432005324       35.5040851950        2.8288400322  W2        2757            0.0000000000
      8271      2757  TIP3      H2            -37.3646205324       34.9152851950        1.8791700322  W2        2757            0.0000000000
      8272      2758  TIP3      OH2           -32.2860805324       34.6401251950        3.6893400322  W2        2758            0.0000000000
      8273      2758  TIP3      H1            -31.5183605324       34.1812051950        4.0302600322  W2        2758            0.0000000000
      8274      2758  TIP3      H2            -32.3074605324       34.4141051950        2.7594600322  W2        2758            0.0000000000
      8275      2759  TIP3      OH2           -28.1941205324       34.1481851950      -14.9354799678  W2        2759            0.0000000000
      8276      2759  TIP3      H1            -28.8380205324       33.5170451950      -14.6141099678  W2        2759            0.0000000000
      8277      2759  TIP3      H2            -27.4322905324       33.6169851950      -15.1671299678  W2        2759            0.0000000000
      8278      2760  TIP3      OH2           -25.7092105324       33.0202351950        2.4184900322  W2        2760            0.0000000000
      8279      2760  TIP3      H1            -26.0602605324       32.1635351950        2.6615300322  W2        2760            0.0000000000
      8280      2760  TIP3      H2            -24.9828905324       33.1629051950        3.0253900322  W2        2760            0.0000000000
      8281      2761  TIP3      OH2           -23.5898305324       33.9651751950      -14.7016799678  W2        2761            0.0000000000
      8282      2761  TIP3      H1            -23.3067905324       33.1706951950      -14.2489899678  W2        2761            0.0000000000
      8283      2761  TIP3      H2            -22.8500405324       34.1982751950      -15.2625699678  W2        2761            0.0000000000
      8284      2762  TIP3      OH2           -36.9764705324       29.5310951950        3.0233500322  W2        2762            0.0000000000
      8285      2762  TIP3      H1            -36.8324205324       28.6291651950        2.7370200322  W2        2762            0.0000000000
      8286      2762  TIP3      H2            -37.7487305324       29.8173051950        2.5355800322  W2        2762            0.0000000000
      8287      2763  TIP3      OH2           -32.6351005324       29.8746651950      -14.8441899678  W2        2763            0.0000000000
      8288      2763  TIP3      H1            -32.5706905324       29.0806251950      -14.3135499678  W2        2763            0.0000000000
      8289      2763  TIP3      H2            -31.9821805324       29.7559451950      -15.5339899678  W2        2763            0.0000000000
      8290      2764  TIP3      OH2           -30.3208605324       29.5009051950        2.4559900322  W2        2764            0.0000000000
      8291      2764  TIP3      H1            -30.6494805324       29.7717151950        1.5987300322  W2        2764            0.0000000000
      8292      2764  TIP3      H2            -30.1690405324       28.5598851950        2.3684900322  W2        2764            0.0000000000
      8293      2765  TIP3      OH2           -27.2827605324       30.9218351950      -15.1083899678  W2        2765            0.0000000000
      8294      2765  TIP3      H1            -27.5513505324       31.1020451950      -14.2074999678  W2        2765            0.0000000000
      8295      2765  TIP3      H2            -27.4892005324       29.9964551950      -15.2398099678  W2        2765            0.0000000000
      8296      2766  TIP3      OH2           -24.5863405324       29.4166351950       -0.1607799678  W2        2766            0.0000000000
      8297      2766  TIP3      H1            -23.8408605324       30.0050051950       -0.2803799678  W2        2766            0.0000000000
      8298      2766  TIP3      H2            -25.3436605324       29.9986051950       -0.0974699678  W2        2766            0.0000000000
      8299      2767  TIP3      OH2           -36.1438205324       26.7314251950        2.4432800322  W2        2767            0.0000000000
      8300      2767  TIP3      H1            -35.7357005324       25.8740851950        2.3223400322  W2        2767            0.0000000000
      8301      2767  TIP3      H2            -36.4040605324       26.7455551950        3.3643100322  W2        2767            0.0000000000
      8302      2768  TIP3      OH2           -31.4857205324       27.8472851950      -12.5383899678  W2        2768            0.0000000000
      8303      2768  TIP3      H1            -31.9455205324       27.3631151950      -11.8525399678  W2        2768            0.0000000000
      8304      2768  TIP3      H2            -31.2308505324       27.1788251950      -13.1743399678  W2        2768            0.0000000000
      8305      2769  TIP3      OH2           -32.1967905324       25.7399951950       -0.1824299678  W2        2769            0.0000000000
      8306      2769  TIP3      H1            -32.8151805324       26.4146551950        0.0980400322  W2        2769            0.0000000000
      8307      2769  TIP3      H2            -31.8526705324       26.0613851950       -1.0158099678  W2        2769            0.0000000000
      8308      2770  TIP3      OH2           -30.4146805324       26.0904651950      -14.2760699678  W2        2770            0.0000000000
      8309      2770  TIP3      H1            -30.5951805324       25.9355851950      -15.2032399678  W2        2770            0.0000000000
      8310      2770  TIP3      H2            -29.4646305324       26.1983351950      -14.2312799678  W2        2770            0.0000000000
      8311      2771  TIP3      OH2           -27.1769705324       28.2115251950        3.0950500322  W2        2771            0.0000000000
      8312      2771  TIP3      H1            -26.2238505324       28.2954351950        3.0676500322  W2        2771            0.0000000000
      8313      2771  TIP3      H2            -27.3375105324       27.4997051950        3.7145400322  W2        2771            0.0000000000
      8314      2772  TIP3      OH2           -21.0248505324       28.4448851950      -14.8302599678  W2        2772            0.0000000000
      8315      2772  TIP3      H1            -21.2983705324       28.0204351950      -15.6434299678  W2        2772            0.0000000000
      8316      2772  TIP3      H2            -20.9854405324       29.3763351950      -15.0472199678  W2        2772            0.0000000000
      8317      2773  TIP3      OH2           -31.8574205324       23.0950751950        0.8998800322  W2        2773            0.0000000000
      8318      2773  TIP3      H1            -31.7073305324       22.3662051950        0.2978500322  W2        2773            0.0000000000
      8319      2773  TIP3      H2            -31.8551805324       23.8722451950        0.3411000322  W2        2773            0.0000000000
      8320      2774  TIP3      OH2           -31.4448505324       21.4646551950       -1.6073799678  W2        2774            0.0000000000
      8321      2774  TIP3      H1            -30.9091005324       21.9163251950       -2.2594499678  W2        2774            0.0000000000
      8322      2774  TIP3      H2            -32.2968905324       21.3566351950       -2.0299699678  W2        2774            0.0000000000
      8323      2775  TIP3      OH2           -29.8630105324       26.9042751950       -1.3678599678  W2        2775            0.0000000000
      8324      2775  TIP3      H1            -29.1125305324       26.7480251950       -1.9410799678  W2        2775            0.0000000000
      8325      2775  TIP3      H2            -30.2021805324       27.7559351950       -1.6433099678  W2        2775            0.0000000000
      8326      2776  TIP3      OH2           -25.4473905324       24.7194551950        3.6606700322  W2        2776            0.0000000000
      8327      2776  TIP3      H1            -25.2552605324       23.7883951950        3.5491200322  W2        2776            0.0000000000
      8328      2776  TIP3      H2            -24.5897605324       25.1444051950        3.6502100322  W2        2776            0.0000000000
      8329      2777  TIP3      OH2           -24.1306705324       27.5079751950        1.7379400322  W2        2777            0.0000000000
      8330      2777  TIP3      H1            -24.4121705324       28.2174351950        1.1603200322  W2        2777            0.0000000000
      8331      2777  TIP3      H2            -23.1882405324       27.4352751950        1.5870600322  W2        2777            0.0000000000
      8332      2778  TIP3      OH2           -33.3787905324       24.2934251950        2.8114400322  W2        2778            0.0000000000
      8333      2778  TIP3      H1            -34.1458905324       23.7609051950        2.6012000322  W2        2778            0.0000000000
      8334      2778  TIP3      H2            -32.6998905324       23.9834651950        2.2120700322  W2        2778            0.0000000000
      8335      2779  TIP3      OH2           -30.6393005324       18.9212251950       -1.1760199678  W2        2779            0.0000000000
      8336      2779  TIP3      H1            -30.7373405324       19.8675451950       -1.2813999678  W2        2779            0.0000000000
      8337      2779  TIP3      H2            -31.3816805324       18.5486051950       -1.6516699678  W2        2779            0.0000000000
      8338      2780  TIP3      OH2           -29.3752505324       23.2427651950        2.3878200322  W2        2780            0.0000000000
      8339      2780  TIP3      H1            -29.6107105324       23.0234351950        3.2893100322  W2        2780            0.0000000000
      8340      2780  TIP3      H2            -30.1585605324       23.0358851950        1.8780700322  W2        2780            0.0000000000
      8341      2781  TIP3      OH2           -26.6595905324       22.3701151950        1.4631700322  W2        2781            0.0000000000
      8342      2781  TIP3      H1            -27.6070505324       22.4020851950        1.5955000322  W2        2781            0.0000000000
      8343      2781  TIP3      H2            -26.3469205324       21.7448251950        2.1169900322  W2        2781            0.0000000000
      8344      2782  TIP3      OH2           -25.0254405324       21.0042251950        3.4683600322  W2        2782            0.0000000000
      8345      2782  TIP3      H1            -25.1222605324       20.0519551950        3.4625500322  W2        2782            0.0000000000
      8346      2782  TIP3      H2            -25.3471305324       21.2729051950        4.3289100322  W2        2782            0.0000000000
      8347      2783  TIP3      OH2           -35.1985105324       22.2138051950        2.5159100322  W2        2783            0.0000000000
      8348      2783  TIP3      H1            -34.9867705324       21.5074151950        1.9056600322  W2        2783            0.0000000000
      8349      2783  TIP3      H2            -35.3097605324       21.7764051950        3.3600300322  W2        2783            0.0000000000
      8350      2784  TIP3      OH2           -30.4174905324       18.2149651950        1.4952600322  W2        2784            0.0000000000
      8351      2784  TIP3      H1            -29.7056505324       17.5751851950        1.4811700322  W2        2784            0.0000000000
      8352      2784  TIP3      H2            -30.5184505324       18.4817951950        0.5815700322  W2        2784            0.0000000000
      8353      2785  TIP3      OH2           -30.0637405324       19.8978051950        3.5488900322  W2        2785            0.0000000000
      8354      2785  TIP3      H1            -30.1955205324       19.4221851950        2.7287400322  W2        2785            0.0000000000
      8355      2785  TIP3      H2            -30.6630005324       20.6421651950        3.4936000322  W2        2785            0.0000000000
      8356      2786  TIP3      OH2           -30.5175105324       36.7808351950      -13.2747099678  W2        2786            0.0000000000
      8357      2786  TIP3      H1            -29.5844405324       36.9387051950      -13.1308699678  W2        2786            0.0000000000
      8358      2786  TIP3      H2            -30.7816305324       37.4561351950      -13.8995599678  W2        2786            0.0000000000
      8359      2787  TIP3      OH2           -36.9490205324       31.4172151950      -13.7918999678  W2        2787            0.0000000000
      8360      2787  TIP3      H1            -36.0351005324       31.4961051950      -13.5185099678  W2        2787            0.0000000000
      8361      2787  TIP3      H2            -36.9417105324       30.7301751950      -14.4583399678  W2        2787            0.0000000000
      8362      2788  TIP3      OH2           -38.2999605324       36.8100651950       -8.7145099678  W2        2788            0.0000000000
      8363      2788  TIP3      H1            -38.9472505324       36.3482351950       -9.2473899678  W2        2788            0.0000000000
      8364      2788  TIP3      H2            -37.9455005324       36.1383951950       -8.1318899678  W2        2788            0.0000000000
      8365      2789  TIP3      OH2           -37.4300405324       34.8907651950       -6.9098899678  W2        2789            0.0000000000
      8366      2789  TIP3      H1            -37.7643605324       34.0104951950       -6.7378699678  W2        2789            0.0000000000
      8367      2789  TIP3      H2            -37.2078005324       35.2362651950       -6.0453299678  W2        2789            0.0000000000
      8368      2790  TIP3      OH2           -19.8815605324       35.7004051950       -3.9294099678  W2        2790            0.0000000000
      8369      2790  TIP3      H1            -19.9028905324       35.8852451950       -2.9904699678  W2        2790            0.0000000000
      8370      2790  TIP3      H2            -19.1909405324       36.2688051950       -4.2702699678  W2        2790            0.0000000000
      8371      2791  TIP3      OH2           -20.3182705324       35.2675151950       -1.0074999678  W2        2791            0.0000000000
      8372      2791  TIP3      H1            -20.8054005324       34.5319251950       -1.3787599678  W2        2791            0.0000000000
      8373      2791  TIP3      H2            -19.7690005324       34.8739051950       -0.3295599678  W2        2791            0.0000000000
      8374      2792  TIP3      OH2           -21.8675405324       31.0573251950        3.6305300322  W2        2792            0.0000000000
      8375      2792  TIP3      H1            -22.7334305324       30.9522951950        4.0247600322  W2        2792            0.0000000000
      8376      2792  TIP3      H2            -21.4909505324       31.8156551950        4.0770000322  W2        2792            0.0000000000
      8377      2793  TIP3      OH2           -20.5665705324       29.3136951950      -10.8552199678  W2        2793            0.0000000000
      8378      2793  TIP3      H1            -19.7164305324       29.7347851950      -10.7280599678  W2        2793            0.0000000000
      8379      2793  TIP3      H2            -20.5610605324       28.5737051950      -10.2480799678  W2        2793            0.0000000000
      8380      2794  TIP3      OH2           -20.1720105324       27.3674351950       -9.0316499678  W2        2794            0.0000000000
      8381      2794  TIP3      H1            -20.8985505324       26.8876951950       -8.6338899678  W2        2794            0.0000000000
      8382      2794  TIP3      H2            -19.5906805324       27.5729051950       -8.2994899678  W2        2794            0.0000000000
      8383      2795  TIP3      OH2           -20.4128905324       30.1521851950       -4.0838899678  W2        2795            0.0000000000
      8384      2795  TIP3      H1            -19.5794705324       29.7741851950       -4.3645299678  W2        2795            0.0000000000
      8385      2795  TIP3      H2            -20.3008605324       31.0953051950       -4.2029799678  W2        2795            0.0000000000
      8386      2796  TIP3      OH2           -21.9266605324       33.0299351950       -1.7770499678  W2        2796            0.0000000000
      8387      2796  TIP3      H1            -22.5741305324       33.3550851950       -1.1515299678  W2        2796            0.0000000000
      8388      2796  TIP3      H2            -22.4442605324       32.5897051950       -2.4512199678  W2        2796            0.0000000000
      8389      2797  TIP3      OH2           -19.9037005324       27.2682851950      -12.6405199678  W2        2797            0.0000000000
      8390      2797  TIP3      H1            -20.4255905324       27.6246951950      -13.3594299678  W2        2797            0.0000000000
      8391      2797  TIP3      H2            -19.9367805324       27.9430651950      -11.9624299678  W2        2797            0.0000000000
      8392      2798  TIP3      OH2           -21.5548005324       24.5078451950      -14.0898099678  W2        2798            0.0000000000
      8393      2798  TIP3      H1            -21.4583605324       25.1745451950      -14.7698399678  W2        2798            0.0000000000
      8394      2798  TIP3      H2            -21.6948405324       23.6924751950      -14.5712599678  W2        2798            0.0000000000
      8395      2799  TIP3      OH2           -22.3853305324       25.8880851950       -8.4687799678  W2        2799            0.0000000000
      8396      2799  TIP3      H1            -22.5354505324       24.9429451950       -8.4889999678  W2        2799            0.0000000000
      8397      2799  TIP3      H2            -22.7388805324       26.1692251950       -7.6248699678  W2        2799            0.0000000000
      8398      2800  TIP3      OH2           -37.3500905324       27.9663051950       -4.4583999678  W2        2800            0.0000000000
      8399      2800  TIP3      H1            -37.1658005324       27.8844751950       -5.3941099678  W2        2800            0.0000000000
      8400      2800  TIP3      H2            -36.5008005324       27.8420051950       -4.0347599678  W2        2800            0.0000000000
      8401      2801  TIP3      OH2           -21.5290405324       27.8584151950        1.1700500322  W2        2801            0.0000000000
      8402      2801  TIP3      H1            -20.9463105324       27.1236451950        1.3617700322  W2        2801            0.0000000000
      8403      2801  TIP3      H2            -20.9651105324       28.6304451950        1.2166300322  W2        2801            0.0000000000
      8404      2802  TIP3      OH2           -20.0323305324       25.7609951950        1.8545900322  W2        2802            0.0000000000
      8405      2802  TIP3      H1            -20.8956605324       25.3822051950        1.6890600322  W2        2802            0.0000000000
      8406      2802  TIP3      H2            -19.4279605324       25.0224751950        1.7801700322  W2        2802            0.0000000000
      8407      2803  TIP3      OH2           -22.3074205324       21.9158251950      -14.9722599678  W2        2803            0.0000000000
      8408      2803  TIP3      H1            -21.6968405324       21.5445051950      -14.3354399678  W2        2803            0.0000000000
      8409      2803  TIP3      H2            -23.1442705324       21.4945151950      -14.7762599678  W2        2803            0.0000000000
      8410      2804  TIP3      OH2           -22.6748505324       23.4706651950      -10.0062699678  W2        2804            0.0000000000
      8411      2804  TIP3      H1            -22.3951405324       22.5637051950       -9.8820999678  W2        2804            0.0000000000
      8412      2804  TIP3      H2            -21.9156805324       23.9048151950      -10.3953499678  W2        2804            0.0000000000
      8413      2805  TIP3      OH2           -22.0630205324       24.0524051950       -4.5703799678  W2        2805            0.0000000000
      8414      2805  TIP3      H1            -21.1302205324       24.2643951950       -4.6047799678  W2        2805            0.0000000000
      8415      2805  TIP3      H2            -22.2982705324       24.1536151950       -3.6480799678  W2        2805            0.0000000000
      8416      2806  TIP3      OH2           -22.0338305324       24.7889351950       -1.7944399678  W2        2806            0.0000000000
      8417      2806  TIP3      H1            -22.8767005324       25.0569751950       -1.4284599678  W2        2806            0.0000000000
      8418      2806  TIP3      H2            -21.5914005324       25.6111251950       -2.0053299678  W2        2806            0.0000000000
      8419      2807  TIP3      OH2           -37.7526105324       23.2368051950        1.6824800322  W2        2807            0.0000000000
      8420      2807  TIP3      H1            -36.8331205324       23.1146351950        1.9187900322  W2        2807            0.0000000000
      8421      2807  TIP3      H2            -38.2021605324       22.4867751950        2.0718300322  W2        2807            0.0000000000
      8422      2808  TIP3      OH2           -19.7506705324       18.7689551950        3.5590600322  W2        2808            0.0000000000
      8423      2808  TIP3      H1            -19.4009705324       18.1153051950        2.9535300322  W2        2808            0.0000000000
      8424      2808  TIP3      H2            -19.6037205324       19.6063651950        3.1193200322  W2        2808            0.0000000000
      8425      2809  TIP3      OH2           -22.0613705324       20.7335951950       -9.9580699678  W2        2809            0.0000000000
      8426      2809  TIP3      H1            -21.8788705324       20.2847451950       -9.1325699678  W2        2809            0.0000000000
      8427      2809  TIP3      H2            -22.6610805324       20.1490351950      -10.4216099678  W2        2809            0.0000000000
      8428      2810  TIP3      OH2           -36.5313605324       21.5489651950       -5.4262299678  W2        2810            0.0000000000
      8429      2810  TIP3      H1            -36.0862005324       20.7572151950       -5.1242599678  W2        2810            0.0000000000
      8430      2810  TIP3      H2            -36.0650605324       22.2654851950       -4.9956699678  W2        2810            0.0000000000
      8431      2811  TIP3      OH2           -38.2273305324       24.5482651950       -4.3572099678  W2        2811            0.0000000000
      8432      2811  TIP3      H1            -37.7353505324       24.3273151950       -5.1480099678  W2        2811            0.0000000000
      8433      2811  TIP3      H2            -37.8652405324       25.3886051950       -4.0762599678  W2        2811            0.0000000000
      8434      2812  TIP3      OH2           -20.2309505324       20.8784151950        1.9081900322  W2        2812            0.0000000000
      8435      2812  TIP3      H1            -21.1483805324       21.1491251950        1.8725400322  W2        2812            0.0000000000
      8436      2812  TIP3      H2            -20.1080105324       20.3432551950        1.1241600322  W2        2812            0.0000000000
      8437      2813  TIP3      OH2           -20.1947505324       20.8014051950      -13.4300399678  W2        2813            0.0000000000
      8438      2813  TIP3      H1            -19.7824905324       20.0799751950      -13.9052399678  W2        2813            0.0000000000
      8439      2813  TIP3      H2            -19.5131005324       21.4708651950      -13.3716099678  W2        2813            0.0000000000
      8440      2814  TIP3      OH2           -37.9136805324       20.8061751950      -10.3029699678  W2        2814            0.0000000000
      8441      2814  TIP3      H1            -38.8388405324       21.0148351950      -10.4324199678  W2        2814            0.0000000000
      8442      2814  TIP3      H2            -37.4596905324       21.2902551950      -10.9927399678  W2        2814            0.0000000000
      8443      2815  TIP3      OH2           -23.1429605324       35.7903451950       -8.3572299678  W2        2815            0.0000000000
      8444      2815  TIP3      H1            -22.4906705324       35.4425551950       -8.9653199678  W2        2815            0.0000000000
      8445      2815  TIP3      H2            -22.6325805324       36.2786651950       -7.7112599678  W2        2815            0.0000000000
      8446      2816  TIP3      OH2           -37.9501405324       19.5440751950       -1.9587199678  W2        2816            0.0000000000
      8447      2816  TIP3      H1            -38.6150905324       19.2981051950       -1.3156299678  W2        2816            0.0000000000
      8448      2816  TIP3      H2            -38.3930105324       20.1661151950       -2.5359199678  W2        2816            0.0000000000
      8449      2817  TIP3      OH2           -35.7582105324       32.7194851950        2.1858600322  W2        2817            0.0000000000
      8450      2817  TIP3      H1            -36.5789605324       32.8941351950        1.7253300322  W2        2817            0.0000000000
      8451      2817  TIP3      H2            -36.0104305324       32.6459551950        3.1063000322  W2        2817            0.0000000000
      8452      2818  TIP3      OH2           -32.8039205324       33.6936051950       -1.5557399678  W2        2818            0.0000000000
      8453      2818  TIP3      H1            -33.2288105324       34.5034551950       -1.8382799678  W2        2818            0.0000000000
      8454      2818  TIP3      H2            -31.8996405324       33.7790151950       -1.8577599678  W2        2818            0.0000000000
      8455      2819  TIP3      OH2           -28.4927805324       35.0926051950        1.4036300322  W2        2819            0.0000000000
      8456      2819  TIP3      H1            -28.3080305324       34.7592151950        2.2816600322  W2        2819            0.0000000000
      8457      2819  TIP3      H2            -27.6463305324       35.4024651950        1.0815500322  W2        2819            0.0000000000
      8458      2820  TIP3      OH2           -26.1477405324       36.3784951950        0.6477700322  W2        2820            0.0000000000
      8459      2820  TIP3      H1            -25.4708505324       35.7457251950        0.4076900322  W2        2820            0.0000000000
      8460      2820  TIP3      H2            -25.8258605324       36.7795451950        1.4551000322  W2        2820            0.0000000000
      8461      2821  TIP3      OH2           -21.2303605324       18.9680451950       -0.2727299678  W2        2821            0.0000000000
      8462      2821  TIP3      H1            -22.0430105324       19.2930751950       -0.6602599678  W2        2821            0.0000000000
      8463      2821  TIP3      H2            -20.9975105324       18.2078951950       -0.8058199678  W2        2821            0.0000000000
      8464      2822  TIP3      OH2           -35.4022505324       36.9499951950       -1.5082099678  W2        2822            0.0000000000
      8465      2822  TIP3      H1            -36.1226105324       37.3900951950       -1.9594399678  W2        2822            0.0000000000
      8466      2822  TIP3      H2            -35.7678505324       36.6994651950       -0.6598099678  W2        2822            0.0000000000
      8467      2823  TIP3      OH2           -32.9349905324       36.5503851950       -2.4784899678  W2        2823            0.0000000000
      8468      2823  TIP3      H1            -33.7997705324       36.6222351950       -2.0744799678  W2        2823            0.0000000000
      8469      2823  TIP3      H2            -32.9900905324       37.0971151950       -3.2622399678  W2        2823            0.0000000000
      8470      2824  TIP3      OH2           -28.2244305324       36.4382751950       -3.3028899678  W2        2824            0.0000000000
      8471      2824  TIP3      H1            -28.6810305324       36.9672451950       -3.9570499678  W2        2824            0.0000000000
      8472      2824  TIP3      H2            -28.0616305324       37.0414151950       -2.5776599678  W2        2824            0.0000000000
      8473      2825  TIP3      OH2           -25.8968005324       35.3162351950       -2.3578599678  W2        2825            0.0000000000
      8474      2825  TIP3      H1            -26.8014305324       35.4812551950       -2.6236499678  W2        2825            0.0000000000
      8475      2825  TIP3      H2            -25.4679405324       36.1694551950       -2.4235199678  W2        2825            0.0000000000
      8476      2826  TIP3      OH2           -23.2926105324       36.8861451950       -2.0630799678  W2        2826            0.0000000000
      8477      2826  TIP3      H1            -23.4744105324       37.8020351950       -2.2735899678  W2        2826            0.0000000000
      8478      2826  TIP3      H2            -23.1158305324       36.4758551950       -2.9096199678  W2        2826            0.0000000000
      8479      2827  TIP3      OH2           -35.9874405324       35.5732451950       -4.5980299678  W2        2827            0.0000000000
      8480      2827  TIP3      H1            -36.0058405324       35.1477551950       -3.7407999678  W2        2827            0.0000000000
      8481      2827  TIP3      H2            -35.1826505324       35.2547451950       -5.0068099678  W2        2827            0.0000000000
      8482      2828  TIP3      OH2           -33.8461305324       34.2831151950       -5.9430399678  W2        2828            0.0000000000
      8483      2828  TIP3      H1            -34.0650605324       33.3668551950       -5.7734399678  W2        2828            0.0000000000
      8484      2828  TIP3      H2            -33.0219105324       34.4231551950       -5.4768999678  W2        2828            0.0000000000
      8485      2829  TIP3      OH2           -31.3088805324       34.7530451950       -5.0942399678  W2        2829            0.0000000000
      8486      2829  TIP3      H1            -31.0963105324       33.8649451950       -5.3811499678  W2        2829            0.0000000000
      8487      2829  TIP3      H2            -31.2443705324       34.7188151950       -4.1398399678  W2        2829            0.0000000000
      8488      2830  TIP3      OH2           -27.8005105324       20.4171051950       -5.9499099678  W2        2830            0.0000000000
      8489      2830  TIP3      H1            -28.4748305324       19.7876651950       -5.6943299678  W2        2830            0.0000000000
      8490      2830  TIP3      H2            -27.2365905324       19.9329951950       -6.5531199678  W2        2830            0.0000000000
      8491      2831  TIP3      OH2           -22.6577905324       18.5245051950       -5.8371999678  W2        2831            0.0000000000
      8492      2831  TIP3      H1            -22.0540305324       19.0720451950       -6.3390999678  W2        2831            0.0000000000
      8493      2831  TIP3      H2            -23.5275905324       18.8435451950       -6.0777899678  W2        2831            0.0000000000
      8494      2832  TIP3      OH2           -20.9307505324       19.6633751950       -7.5041099678  W2        2832            0.0000000000
      8495      2832  TIP3      H1            -20.3190005324       19.1489451950       -8.0307499678  W2        2832            0.0000000000
      8496      2832  TIP3      H2            -20.5484105324       20.5405851950       -7.4806699678  W2        2832            0.0000000000
      8497      2833  TIP3      OH2           -35.4737605324       19.0511351950       -8.1279199678  W2        2833            0.0000000000
      8498      2833  TIP3      H1            -36.2507805324       18.8166251950       -8.6353299678  W2        2833            0.0000000000
      8499      2833  TIP3      H2            -34.9434005324       18.2543451950       -8.1191199678  W2        2833            0.0000000000
      8500      2834  TIP3      OH2           -36.6374205324       18.8489451950      -12.3243099678  W2        2834            0.0000000000
      8501      2834  TIP3      H1            -36.1983505324       19.4599951950      -12.9159599678  W2        2834            0.0000000000
      8502      2834  TIP3      H2            -37.2711805324       19.3873551950      -11.8503099678  W2        2834            0.0000000000
      8503      2835  TIP3      OH2           -30.8945005324       18.9778451950       -8.3146099678  W2        2835            0.0000000000
      8504      2835  TIP3      H1            -30.0201605324       19.3662751950       -8.3441799678  W2        2835            0.0000000000
      8505      2835  TIP3      H2            -31.0304205324       18.7626251950       -7.3918899678  W2        2835            0.0000000000
      8506      2836  TIP3      OH2           -25.3376605324       19.0078251950       -6.6654399678  W2        2836            0.0000000000
      8507      2836  TIP3      H1            -25.2615005324       19.1029851950       -7.6148399678  W2        2836            0.0000000000
      8508      2836  TIP3      H2            -25.6127405324       18.1001151950       -6.5365299678  W2        2836            0.0000000000
      8509      2837  TIP3      OH2           -23.9844005324       19.0336051950      -10.9729399678  W2        2837            0.0000000000
      8510      2837  TIP3      H1            -24.6872905324       19.6485251950      -11.1827999678  W2        2837            0.0000000000
      8511      2837  TIP3      H2            -24.4292605324       18.1962751950      -10.8418499678  W2        2837            0.0000000000
      8512      2838  TIP3      OH2           -36.7364705324       34.7971651950      -11.4267999678  W2        2838            0.0000000000
      8513      2838  TIP3      H1            -37.4214805324       34.7590551950      -12.0942899678  W2        2838            0.0000000000
      8514      2838  TIP3      H2            -36.7327505324       35.7099251950      -11.1385899678  W2        2838            0.0000000000
      8515      2839  TIP3      OH2           -34.7765105324       20.7650951950      -13.8818999678  W2        2839            0.0000000000
      8516      2839  TIP3      H1            -34.2851705324       20.1353351950      -14.4093499678  W2        2839            0.0000000000
      8517      2839  TIP3      H2            -34.1528805324       21.0610351950      -13.2187799678  W2        2839            0.0000000000
      8518      2840  TIP3      OH2           -29.7505005324       21.0582451950      -11.4248499678  W2        2840            0.0000000000
      8519      2840  TIP3      H1            -29.5723705324       20.4115651950      -10.7419899678  W2        2840            0.0000000000
      8520      2840  TIP3      H2            -29.8038805324       21.8920151950      -10.9577399678  W2        2840            0.0000000000
      8521      2841  TIP3      OH2           -27.8721205324       36.0066551950      -13.0291799678  W2        2841            0.0000000000
      8522      2841  TIP3      H1            -27.0061005324       36.3733951950      -13.2073599678  W2        2841            0.0000000000
      8523      2841  TIP3      H2            -28.1188405324       35.5674551950      -13.8430999678  W2        2841            0.0000000000
      8524      2842  TIP3      OH2           -21.1631605324       35.5696851950      -10.3500699678  W2        2842            0.0000000000
      8525      2842  TIP3      H1            -21.3574505324       34.8218951950      -10.9151099678  W2        2842            0.0000000000
      8526      2842  TIP3      H2            -21.2021505324       36.3276951950      -10.9332799678  W2        2842            0.0000000000
      8527      2843  TIP3      OH2           -35.5159605324       19.5653251950        1.3897000322  W2        2843            0.0000000000
      8528      2843  TIP3      H1            -35.8821405324       18.7995851950        1.8321700322  W2        2843            0.0000000000
      8529      2843  TIP3      H2            -34.6031105324       19.5943451950        1.6762100322  W2        2843            0.0000000000
      8530      2844  TIP3      OH2           -33.5428805324       18.9157651950        2.9254100322  W2        2844            0.0000000000
      8531      2844  TIP3      H1            -32.6445205324       18.6417851950        2.7407500322  W2        2844            0.0000000000
      8532      2844  TIP3      H2            -33.9295705324       18.1733651950        3.3896700322  W2        2844            0.0000000000
      8533      2845  TIP3      OH2           -34.9183505324       35.7172451950      -14.4015899678  W2        2845            0.0000000000
      8534      2845  TIP3      H1            -35.1858905324       36.0035351950      -13.5282799678  W2        2845            0.0000000000
      8535      2845  TIP3      H2            -34.1470905324       35.1711651950      -14.2493399678  W2        2845            0.0000000000
      8536      2846  TIP3      OH2           -25.1216505324       18.2482951950        3.1076900322  W2        2846            0.0000000000
      8537      2846  TIP3      H1            -25.0449305324       17.8223651950        3.9614600322  W2        2846            0.0000000000
      8538      2846  TIP3      H2            -24.2279905324       18.2617651950        2.7650400322  W2        2846            0.0000000000
      8539      2847  TIP3      OH2           -21.9455405324       34.3209251950        1.8001100322  W2        2847            0.0000000000
      8540      2847  TIP3      H1            -22.7273505324       34.1347251950        1.2801700322  W2        2847            0.0000000000
      8541      2847  TIP3      H2            -22.0175505324       35.2503551950        2.0173600322  W2        2847            0.0000000000
      8542      2848  TIP3      OH2            -7.5395005324       28.2073651950       -8.1691699678  W2        2848            0.0000000000
      8543      2848  TIP3      H1             -7.4503905324       29.1511851950       -8.3014599678  W2        2848            0.0000000000
      8544      2848  TIP3      H2             -8.1777405324       27.9320051950       -8.8272299678  W2        2848            0.0000000000
      8545      2849  TIP3      OH2            -8.6063705324       27.4624351950       -4.7503499678  W2        2849            0.0000000000
      8546      2849  TIP3      H1             -8.6446205324       26.8160651950       -4.0453899678  W2        2849            0.0000000000
      8547      2849  TIP3      H2             -8.9287205324       26.9958751950       -5.5214799678  W2        2849            0.0000000000
      8548      2850  TIP3      OH2           -16.2378705324       27.0766451950       -3.1573599678  W2        2850            0.0000000000
      8549      2850  TIP3      H1            -16.1966605324       26.4509751950       -2.4341199678  W2        2850            0.0000000000
      8550      2850  TIP3      H2            -15.5351005324       27.7005051950       -2.9753199678  W2        2850            0.0000000000
      8551      2851  TIP3      OH2            -4.9003505324       30.4014751950       -6.4488399678  W2        2851            0.0000000000
      8552      2851  TIP3      H1             -5.3410805324       29.6810751950       -5.9982799678  W2        2851            0.0000000000
      8553      2851  TIP3      H2             -4.9133805324       31.1221951950       -5.8190699678  W2        2851            0.0000000000
      8554      2852  TIP3      OH2           -15.3145605324       31.5265351950       -4.6224499678  W2        2852            0.0000000000
      8555      2852  TIP3      H1            -15.6840405324       30.7245851950       -4.9920199678  W2        2852            0.0000000000
      8556      2852  TIP3      H2            -14.3734505324       31.3580251950       -4.5761099678  W2        2852            0.0000000000
      8557      2853  TIP3      OH2           -18.7045105324       25.1867951950       -9.2295699678  W2        2853            0.0000000000
      8558      2853  TIP3      H1            -19.1521705324       26.0326651950       -9.2479199678  W2        2853            0.0000000000
      8559      2853  TIP3      H2            -19.2653905324       24.6072151950       -9.7450599678  W2        2853            0.0000000000
      8560      2854  TIP3      OH2           -17.9939005324       27.3487551950       -7.1037699678  W2        2854            0.0000000000
      8561      2854  TIP3      H1            -17.7805505324       26.5789151950       -6.5764699678  W2        2854            0.0000000000
      8562      2854  TIP3      H2            -17.2561405324       27.4384251950       -7.7070099678  W2        2854            0.0000000000
      8563      2855  TIP3      OH2            -7.7888005324       35.5056451950       -6.2367999678  W2        2855            0.0000000000
      8564      2855  TIP3      H1             -7.1691605324       34.8291151950       -6.5098799678  W2        2855            0.0000000000
      8565      2855  TIP3      H2             -7.9970605324       35.2877251950       -5.3283099678  W2        2855            0.0000000000
      8566      2856  TIP3      OH2           -10.2169305324       29.8945751950       -4.3442499678  W2        2856            0.0000000000
      8567      2856  TIP3      H1             -9.9131405324       29.2087151950       -4.9388399678  W2        2856            0.0000000000
      8568      2856  TIP3      H2             -9.4955305324       30.0134451950       -3.7264499678  W2        2856            0.0000000000
      8569      2857  TIP3      OH2            -1.5539505324       21.4961051950       -3.4836299678  W2        2857            0.0000000000
      8570      2857  TIP3      H1             -1.5047305324       22.1062251950       -2.7477199678  W2        2857            0.0000000000
      8571      2857  TIP3      H2             -1.1284405324       21.9571951950       -4.2065199678  W2        2857            0.0000000000
      8572      2858  TIP3      OH2            -7.0762305324       24.2888151950       -4.0167699678  W2        2858            0.0000000000
      8573      2858  TIP3      H1             -6.9336405324       23.3425151950       -3.9966099678  W2        2858            0.0000000000
      8574      2858  TIP3      H2             -7.1823305324       24.4957951950       -4.9452799678  W2        2858            0.0000000000
      8575      2859  TIP3      OH2           -13.9214005324       22.3904551950       -6.7442899678  W2        2859            0.0000000000
      8576      2859  TIP3      H1            -13.8782905324       23.2503051950       -7.1626599678  W2        2859            0.0000000000
      8577      2859  TIP3      H2            -14.3789905324       21.8379251950       -7.3779699678  W2        2859            0.0000000000
      8578      2860  TIP3      OH2            -6.1991305324       22.5210151950       -8.3434599678  W2        2860            0.0000000000
      8579      2860  TIP3      H1             -5.5527005324       22.1923351950       -7.7186999678  W2        2860            0.0000000000
      8580      2860  TIP3      H2             -5.6891905324       23.0389151950       -8.9663199678  W2        2860            0.0000000000
      8581      2861  TIP3      OH2           -17.3012505324       24.7870351950       -5.9821499678  W2        2861            0.0000000000
      8582      2861  TIP3      H1            -16.6475905324       24.2372051950       -5.5501399678  W2        2861            0.0000000000
      8583      2861  TIP3      H2            -17.2773205324       24.5129351950       -6.8989499678  W2        2861            0.0000000000
      8584      2862  TIP3      OH2           -12.1448005324       26.3371651950       -6.7669999678  W2        2862            0.0000000000
      8585      2862  TIP3      H1            -11.5287005324       25.8107051950       -6.2575999678  W2        2862            0.0000000000
      8586      2862  TIP3      H2            -12.7309205324       25.6970351950       -7.1706399678  W2        2862            0.0000000000
      8587      2863  TIP3      OH2            -1.1624905324       22.9740251950       -1.2476499678  W2        2863            0.0000000000
      8588      2863  TIP3      H1             -1.8510305324       23.6320951950       -1.3429899678  W2        2863            0.0000000000
      8589      2863  TIP3      H2             -1.1470305324       22.7768151950       -0.3111099678  W2        2863            0.0000000000
      8590      2864  TIP3      OH2           -15.1112105324       21.3082951950       -2.6702099678  W2        2864            0.0000000000
      8591      2864  TIP3      H1            -15.3300405324       21.8383551950       -3.4366099678  W2        2864            0.0000000000
      8592      2864  TIP3      H2            -15.7791205324       21.5348451950       -2.0230699678  W2        2864            0.0000000000
      8593      2865  TIP3      OH2            -7.7422305324       30.8084051950       -9.1262999678  W2        2865            0.0000000000
      8594      2865  TIP3      H1             -8.0377205324       30.4856351950       -9.9776099678  W2        2865            0.0000000000
      8595      2865  TIP3      H2             -8.0664505324       31.7080751950       -9.0850399678  W2        2865            0.0000000000
      8596      2866  TIP3      OH2           -12.5420705324       28.9838651950       -2.3828399678  W2        2866            0.0000000000
      8597      2866  TIP3      H1            -13.2821605324       29.5820151950       -2.2793199678  W2        2866            0.0000000000
      8598      2866  TIP3      H2            -11.8281205324       29.5378251950       -2.6984799678  W2        2866            0.0000000000
      8599      2867  TIP3      OH2            -4.4352905324       21.8119451950       -6.3628699678  W2        2867            0.0000000000
      8600      2867  TIP3      H1             -4.6504905324       21.0462851950       -5.8302699678  W2        2867            0.0000000000
      8601      2867  TIP3      H2             -3.7795505324       22.2844051950       -5.8500199678  W2        2867            0.0000000000
      8602      2868  TIP3      OH2           -15.5174805324       23.2004751950       -4.7179899678  W2        2868            0.0000000000
      8603      2868  TIP3      H1            -14.9038505324       23.8332351950       -4.3447499678  W2        2868            0.0000000000
      8604      2868  TIP3      H2            -15.0054105324       22.7279751950       -5.3742999678  W2        2868            0.0000000000
      8605      2869  TIP3      OH2           -14.1346405324       30.9481651950       -1.5956899678  W2        2869            0.0000000000
      8606      2869  TIP3      H1            -14.1398805324       31.8275151950       -1.9737599678  W2        2869            0.0000000000
      8607      2869  TIP3      H2            -14.9882305324       30.8645751950       -1.1706999678  W2        2869            0.0000000000
      8608      2870  TIP3      OH2           -18.0135505324       30.6189551950      -10.8137599678  W2        2870            0.0000000000
      8609      2870  TIP3      H1            -18.2854605324       30.8480551950      -11.7024699678  W2        2870            0.0000000000
      8610      2870  TIP3      H2            -17.9679805324       31.4568351950      -10.3532299678  W2        2870            0.0000000000
      8611      2871  TIP3      OH2            -4.3885805324       32.2405451950       -4.1009099678  W2        2871            0.0000000000
      8612      2871  TIP3      H1             -5.3302105324       32.2989351950       -3.9392199678  W2        2871            0.0000000000
      8613      2871  TIP3      H2             -4.1119705324       33.1465951950       -4.2379399678  W2        2871            0.0000000000
      8614      2872  TIP3      OH2            -4.0878805324       20.5270751950       -2.6835199678  W2        2872            0.0000000000
      8615      2872  TIP3      H1             -4.8239605324       21.1377851950       -2.7213899678  W2        2872            0.0000000000
      8616      2872  TIP3      H2             -3.4044805324       20.9419751950       -3.2098799678  W2        2872            0.0000000000
      8617      2873  TIP3      OH2           -11.0847405324       18.6138051950       -5.2177199678  W2        2873            0.0000000000
      8618      2873  TIP3      H1            -11.2023205324       17.6654051950       -5.2718899678  W2        2873            0.0000000000
      8619      2873  TIP3      H2            -11.9397305324       18.9464151950       -4.9446099678  W2        2873            0.0000000000
      8620      2874  TIP3      OH2            -6.1364605324       34.0218951950       -7.4757499678  W2        2874            0.0000000000
      8621      2874  TIP3      H1             -5.7112305324       33.3146851950       -7.9607899678  W2        2874            0.0000000000
      8622      2874  TIP3      H2             -5.8194605324       34.8231651950       -7.8925299678  W2        2874            0.0000000000
      8623      2875  TIP3      OH2            -4.9768105324       31.9227451950       -8.9670899678  W2        2875            0.0000000000
      8624      2875  TIP3      H1             -5.2343305324       31.2327551950       -9.5784999678  W2        2875            0.0000000000
      8625      2875  TIP3      H2             -4.9057305324       31.4798651950       -8.1214999678  W2        2875            0.0000000000
      8626      2876  TIP3      OH2            -3.2907905324       30.4894151950       -0.4897399678  W2        2876            0.0000000000
      8627      2876  TIP3      H1             -3.1511605324       29.8976651950       -1.2290399678  W2        2876            0.0000000000
      8628      2876  TIP3      H2             -3.1235105324       31.3620051950       -0.8458599678  W2        2876            0.0000000000
      8629      2877  TIP3      OH2            -8.8182505324       27.4513651950      -10.7171399678  W2        2877            0.0000000000
      8630      2877  TIP3      H1             -9.5297005324       27.9863351950      -11.0690899678  W2        2877            0.0000000000
      8631      2877  TIP3      H2             -8.1272905324       27.5065751950      -11.3772499678  W2        2877            0.0000000000
      8632      2878  TIP3      OH2            -8.7643305324       25.9087951950      -13.6786399678  W2        2878            0.0000000000
      8633      2878  TIP3      H1             -8.0633405324       25.9314851950      -13.0272399678  W2        2878            0.0000000000
      8634      2878  TIP3      H2             -8.4620405324       25.2807651950      -14.3347099678  W2        2878            0.0000000000
      8635      2879  TIP3      OH2            -1.4488605324       26.8292151950       -2.4236999678  W2        2879            0.0000000000
      8636      2879  TIP3      H1             -2.1014505324       27.5237751950       -2.3346099678  W2        2879            0.0000000000
      8637      2879  TIP3      H2             -0.9838305324       27.0393051950       -3.2335399678  W2        2879            0.0000000000
      8638      2880  TIP3      OH2            -5.4124805324       27.6606951950       -9.7655499678  W2        2880            0.0000000000
      8639      2880  TIP3      H1             -6.1443805324       27.8890651950       -9.1924899678  W2        2880            0.0000000000
      8640      2880  TIP3      H2             -4.9652605324       26.9469651950       -9.3107999678  W2        2880            0.0000000000
      8641      2881  TIP3      OH2            -5.5151305324       25.8349551950       -0.6978499678  W2        2881            0.0000000000
      8642      2881  TIP3      H1             -5.4352205324       26.5983951950       -0.1259999678  W2        2881            0.0000000000
      8643      2881  TIP3      H2             -6.1163605324       26.1141951950       -1.3883399678  W2        2881            0.0000000000
      8644      2882  TIP3      OH2           -13.7671105324       28.2913151950       -7.8830499678  W2        2882            0.0000000000
      8645      2882  TIP3      H1            -14.0975905324       27.9206551950       -8.7013499678  W2        2882            0.0000000000
      8646      2882  TIP3      H2            -13.1787005324       27.6207151950       -7.5362199678  W2        2882            0.0000000000
      8647      2883  TIP3      OH2           -12.4003605324       31.7193751950       -5.2018299678  W2        2883            0.0000000000
      8648      2883  TIP3      H1            -12.4952305324       31.1406851950       -5.9583699678  W2        2883            0.0000000000
      8649      2883  TIP3      H2            -11.6710005324       31.3479451950       -4.7055499678  W2        2883            0.0000000000
      8650      2884  TIP3      OH2           -13.4005605324       27.0598751950       -4.2495499678  W2        2884            0.0000000000
      8651      2884  TIP3      H1            -12.8353105324       27.1812951950       -5.0124299678  W2        2884            0.0000000000
      8652      2884  TIP3      H2            -13.0816705324       27.6973751950       -3.6106999678  W2        2884            0.0000000000
      8653      2885  TIP3      OH2            -7.0913405324       32.5630651950       -3.5154999678  W2        2885            0.0000000000
      8654      2885  TIP3      H1             -7.3316805324       33.2253751950       -2.8675799678  W2        2885            0.0000000000
      8655      2885  TIP3      H2             -7.2895205324       31.7285851950       -3.0905399678  W2        2885            0.0000000000
      8656      2886  TIP3      OH2           -12.5204905324       31.4591451950        0.4676400322  W2        2886            0.0000000000
      8657      2886  TIP3      H1            -12.8317405324       32.2414651950        0.9229600322  W2        2886            0.0000000000
      8658      2886  TIP3      H2            -13.1704705324       31.3060551950       -0.2181599678  W2        2886            0.0000000000
      8659      2887  TIP3      OH2            -6.5415305324       26.8229851950      -12.0804299678  W2        2887            0.0000000000
      8660      2887  TIP3      H1             -5.9619805324       26.9730151950      -11.3335399678  W2        2887            0.0000000000
      8661      2887  TIP3      H2             -6.1275305324       27.2937251950      -12.8037899678  W2        2887            0.0000000000
      8662      2888  TIP3      OH2           -15.6005005324       27.6572551950       -0.3037899678  W2        2888            0.0000000000
      8663      2888  TIP3      H1            -15.5301805324       28.3079351950        0.3947100322  W2        2888            0.0000000000
      8664      2888  TIP3      H2            -16.4912805324       27.7600051950       -0.6386999678  W2        2888            0.0000000000
      8665      2889  TIP3      OH2            -8.8150405324       33.5598351950       -8.6451199678  W2        2889            0.0000000000
      8666      2889  TIP3      H1             -8.3412805324       33.8554651950       -7.8676999678  W2        2889            0.0000000000
      8667      2889  TIP3      H2             -9.3781105324       34.2979951950       -8.8781599678  W2        2889            0.0000000000
      8668      2890  TIP3      OH2           -14.2809005324       33.5306451950        1.2310200322  W2        2890            0.0000000000
      8669      2890  TIP3      H1            -14.2733705324       33.3946151950        0.2835700322  W2        2890            0.0000000000
      8670      2890  TIP3      H2            -15.1968605324       33.4134551950        1.4830200322  W2        2890            0.0000000000
      8671      2891  TIP3      OH2            -2.8426905324       18.5730251950      -12.2674599678  W2        2891            0.0000000000
      8672      2891  TIP3      H1             -3.7426205324       18.7119251950      -11.9723999678  W2        2891            0.0000000000
      8673      2891  TIP3      H2             -2.5908505324       19.4044851950      -12.6692899678  W2        2891            0.0000000000
      8674      2892  TIP3      OH2           -14.7768405324       27.3607451950      -10.2937699678  W2        2892            0.0000000000
      8675      2892  TIP3      H1            -15.0687105324       28.1289151950      -10.7846399678  W2        2892            0.0000000000
      8676      2892  TIP3      H2            -15.4513205324       26.7013651950      -10.4566299678  W2        2892            0.0000000000
      8677      2893  TIP3      OH2            -1.6535505324       32.9392651950      -13.8910699678  W2        2893            0.0000000000
      8678      2893  TIP3      H1             -1.5802005324       33.8782851950      -13.7205399678  W2        2893            0.0000000000
      8679      2893  TIP3      H2             -0.7480405324       32.6341251950      -13.9473399678  W2        2893            0.0000000000
      8680      2894  TIP3      OH2           -18.6838305324       29.7236651950       -1.4787899678  W2        2894            0.0000000000
      8681      2894  TIP3      H1            -19.1849905324       29.6956051950       -2.2938199678  W2        2894            0.0000000000
      8682      2894  TIP3      H2            -18.6784605324       28.8179851950       -1.1690599678  W2        2894            0.0000000000
      8683      2895  TIP3      OH2           -18.9335605324       32.5040451950       -4.5947699678  W2        2895            0.0000000000
      8684      2895  TIP3      H1            -17.9875005324       32.3597451950       -4.6138199678  W2        2895            0.0000000000
      8685      2895  TIP3      H2            -19.0459305324       33.2883251950       -4.0576499678  W2        2895            0.0000000000
      8686      2896  TIP3      OH2            -0.7357105324       33.1700151950        1.0876000322  W2        2896            0.0000000000
      8687      2896  TIP3      H1             -0.7850305324       32.2148251950        1.0503600322  W2        2896            0.0000000000
      8688      2896  TIP3      H2             -1.5624805324       33.4375451950        1.4889800322  W2        2896            0.0000000000
      8689      2897  TIP3      OH2            -9.7573105324       32.7439351950       -0.0362599678  W2        2897            0.0000000000
      8690      2897  TIP3      H1             -9.6698505324       33.5703951950        0.4386500322  W2        2897            0.0000000000
      8691      2897  TIP3      H2            -10.6208005324       32.4143151950        0.2126700322  W2        2897            0.0000000000
      8692      2898  TIP3      OH2            -9.3427305324       36.5163051950      -10.2301999678  W2        2898            0.0000000000
      8693      2898  TIP3      H1             -9.4181305324       36.3950251950      -11.1766799678  W2        2898            0.0000000000
      8694      2898  TIP3      H2             -9.3098605324       37.4655751950      -10.1117399678  W2        2898            0.0000000000
      8695      2899  TIP3      OH2           -15.6893505324       35.3050051950       -8.4492999678  W2        2899            0.0000000000
      8696      2899  TIP3      H1            -15.5373105324       34.9570451950       -7.5706499678  W2        2899            0.0000000000
      8697      2899  TIP3      H2            -16.5403105324       34.9487351950       -8.7045799678  W2        2899            0.0000000000
      8698      2900  TIP3      OH2            -6.2411305324       35.6703251950      -13.2279599678  W2        2900            0.0000000000
      8699      2900  TIP3      H1             -5.8662905324       34.9259351950      -13.6986999678  W2        2900            0.0000000000
      8700      2900  TIP3      H2             -6.2367605324       35.4003851950      -12.3096299678  W2        2900            0.0000000000
      8701      2901  TIP3      OH2            -6.5723205324       35.5960351950      -10.4787399678  W2        2901            0.0000000000
      8702      2901  TIP3      H1             -7.5073405324       35.6962251950      -10.3000399678  W2        2901            0.0000000000
      8703      2901  TIP3      H2             -6.2921305324       34.8866351950       -9.9004199678  W2        2901            0.0000000000
      8704      2902  TIP3      OH2            -3.5837305324       24.6632651950        1.5678200322  W2        2902            0.0000000000
      8705      2902  TIP3      H1             -3.9910505324       25.1438251950        0.8471500322  W2        2902            0.0000000000
      8706      2902  TIP3      H2             -3.5431605324       23.7578651950        1.2599000322  W2        2902            0.0000000000
      8707      2903  TIP3      OH2           -16.4347805324       31.0472051950       -0.4355099678  W2        2903            0.0000000000
      8708      2903  TIP3      H1            -16.2186505324       30.6857651950        0.4240700322  W2        2903            0.0000000000
      8709      2903  TIP3      H2            -17.2903105324       30.6725851950       -0.6451599678  W2        2903            0.0000000000
      8710      2904  TIP3      OH2           -13.8159805324       19.5172551950       -4.4400899678  W2        2904            0.0000000000
      8711      2904  TIP3      H1            -14.6776105324       19.4300751950       -4.8477999678  W2        2904            0.0000000000
      8712      2904  TIP3      H2            -13.8384105324       20.3732651950       -4.0123299678  W2        2904            0.0000000000
      8713      2905  TIP3      OH2            -9.1532005324       19.2392951950       -1.0653899678  W2        2905            0.0000000000
      8714      2905  TIP3      H1             -8.7328905324       18.8240051950       -0.3123299678  W2        2905            0.0000000000
      8715      2905  TIP3      H2            -10.0862405324       19.0606251950       -0.9481899678  W2        2905            0.0000000000
      8716      2906  TIP3      OH2            -5.8267105324       22.9948151950       -0.2119399678  W2        2906            0.0000000000
      8717      2906  TIP3      H1             -6.3407605324       22.8690351950        0.5856600322  W2        2906            0.0000000000
      8718      2906  TIP3      H2             -5.9822405324       23.9071251950       -0.4563199678  W2        2906            0.0000000000
      8719      2907  TIP3      OH2            -5.0642205324       27.8558151950      -14.4506399678  W2        2907            0.0000000000
      8720      2907  TIP3      H1             -5.0221405324       27.6332051950      -15.3806399678  W2        2907            0.0000000000
      8721      2907  TIP3      H2             -4.2150105324       28.2545251950      -14.2606499678  W2        2907            0.0000000000
      8722      2908  TIP3      OH2            -9.4914705324       21.7316351950      -13.7803099678  W2        2908            0.0000000000
      8723      2908  TIP3      H1             -9.7449905324       21.7507951950      -12.8574999678  W2        2908            0.0000000000
      8724      2908  TIP3      H2             -9.7482605324       20.8601751950      -14.0816899678  W2        2908            0.0000000000
      8725      2909  TIP3      OH2           -13.7249705324       24.4827051950       -3.3450699678  W2        2909            0.0000000000
      8726      2909  TIP3      H1            -14.3667605324       24.4424351950       -2.6360599678  W2        2909            0.0000000000
      8727      2909  TIP3      H2            -13.6877705324       25.4091751950       -3.5827699678  W2        2909            0.0000000000
      8728      2910  TIP3      OH2           -13.7280605324       24.7037151950       -8.4330699678  W2        2910            0.0000000000
      8729      2910  TIP3      H1            -14.6207705324       24.3633251950       -8.4916899678  W2        2910            0.0000000000
      8730      2910  TIP3      H2            -13.2774005324       24.3268051950       -9.1887499678  W2        2910            0.0000000000
      8731      2911  TIP3      OH2            -8.1925105324       25.1197451950       -9.6159899678  W2        2911            0.0000000000
      8732      2911  TIP3      H1             -8.6014805324       25.9346051950       -9.9075099678  W2        2911            0.0000000000
      8733      2911  TIP3      H2             -7.4718905324       24.9797551950      -10.2302799678  W2        2911            0.0000000000
      8734      2912  TIP3      OH2            -9.0903505324       25.2953851950        1.8720800322  W2        2912            0.0000000000
      8735      2912  TIP3      H1             -9.6529705324       24.5905451950        2.1928600322  W2        2912            0.0000000000
      8736      2912  TIP3      H2             -8.2640105324       25.1745751950        2.3398400322  W2        2912            0.0000000000
      8737      2913  TIP3      OH2            -7.1877405324       24.5657851950       -6.8020199678  W2        2913            0.0000000000
      8738      2913  TIP3      H1             -7.3832905324       25.1714651950       -7.5169599678  W2        2913            0.0000000000
      8739      2913  TIP3      H2             -7.0064805324       23.7323051950       -7.2363899678  W2        2913            0.0000000000
      8740      2914  TIP3      OH2           -15.9749205324       24.8030551950       -1.4778699678  W2        2914            0.0000000000
      8741      2914  TIP3      H1            -16.0129805324       25.2032151950       -0.6091599678  W2        2914            0.0000000000
      8742      2914  TIP3      H2            -16.4658105324       23.9862951950       -1.3875799678  W2        2914            0.0000000000
      8743      2915  TIP3      OH2           -12.6091805324       22.1772851950      -14.6792699678  W2        2915            0.0000000000
      8744      2915  TIP3      H1            -13.0401105324       21.7322951950      -13.9495299678  W2        2915            0.0000000000
      8745      2915  TIP3      H2            -13.3273105324       22.5489151950      -15.1915199678  W2        2915            0.0000000000
      8746      2916  TIP3      OH2           -19.3668405324       21.9192351950       -7.6273999678  W2        2916            0.0000000000
      8747      2916  TIP3      H1            -18.7360705324       21.8904451950       -6.9080099678  W2        2916            0.0000000000
      8748      2916  TIP3      H2            -18.9174105324       21.4941051950       -8.3578099678  W2        2916            0.0000000000
      8749      2917  TIP3      OH2           -18.0926305324       22.6654351950      -12.2033599678  W2        2917            0.0000000000
      8750      2917  TIP3      H1            -17.6184605324       23.2564251950      -12.7882699678  W2        2917            0.0000000000
      8751      2917  TIP3      H2            -18.8099905324       23.1957251950      -11.8563499678  W2        2917            0.0000000000
      8752      2918  TIP3      OH2            -7.9238205324       26.2039151950       -2.1307799678  W2        2918            0.0000000000
      8753      2918  TIP3      H1             -7.6003405324       25.5728851950       -2.7737299678  W2        2918            0.0000000000
      8754      2918  TIP3      H2             -8.3638905324       25.6691351950       -1.4700399678  W2        2918            0.0000000000
      8755      2919  TIP3      OH2           -11.1465305324       22.1314651950       -7.3466599678  W2        2919            0.0000000000
      8756      2919  TIP3      H1            -12.0574205324       22.1881451950       -7.0580599678  W2        2919            0.0000000000
      8757      2919  TIP3      H2            -10.6412405324       22.0710151950       -6.5359399678  W2        2919            0.0000000000
      8758      2920  TIP3      OH2           -16.3181905324       23.7600951950       -8.5198999678  W2        2920            0.0000000000
      8759      2920  TIP3      H1            -17.2073905324       23.8596451950       -8.8599399678  W2        2920            0.0000000000
      8760      2920  TIP3      H2            -16.0217005324       22.9183951950       -8.8661099678  W2        2920            0.0000000000
      8761      2921  TIP3      OH2           -12.6650105324       23.7603551950      -10.8634399678  W2        2921            0.0000000000
      8762      2921  TIP3      H1            -11.7334605324       23.8893551950      -10.6851299678  W2        2921            0.0000000000
      8763      2921  TIP3      H2            -12.8799805324       24.4297851950      -11.5129699678  W2        2921            0.0000000000
      8764      2922  TIP3      OH2            -6.7413405324       21.3660951950       -4.0824799678  W2        2922            0.0000000000
      8765      2922  TIP3      H1             -7.4181805324       21.4974051950       -3.4185099678  W2        2922            0.0000000000
      8766      2922  TIP3      H2             -7.2268505324       21.2110451950       -4.8927099678  W2        2922            0.0000000000
      8767      2923  TIP3      OH2           -13.9909905324       24.9545751950      -13.2968299678  W2        2923            0.0000000000
      8768      2923  TIP3      H1            -14.5334805324       24.5749551950      -13.9880699678  W2        2923            0.0000000000
      8769      2923  TIP3      H2            -13.1575005324       25.1490451950      -13.7254199678  W2        2923            0.0000000000
      8770      2924  TIP3      OH2            -3.4538305324       37.0376351950        2.1942800322  W2        2924            0.0000000000
      8771      2924  TIP3      H1             -3.2539605324       37.4618251950        1.3598100322  W2        2924            0.0000000000
      8772      2924  TIP3      H2             -2.7984605324       37.3814551950        2.8013200322  W2        2924            0.0000000000
      8773      2925  TIP3      OH2           -15.8558505324       29.5117651950        1.8023300322  W2        2925            0.0000000000
      8774      2925  TIP3      H1            -15.1236105324       29.7663551950        2.3637800322  W2        2925            0.0000000000
      8775      2925  TIP3      H2            -16.6359805324       29.7163051950        2.3178700322  W2        2925            0.0000000000
      8776      2926  TIP3      OH2            -9.8265605324       24.9187651950       -5.4596999678  W2        2926            0.0000000000
      8777      2926  TIP3      H1             -9.2622205324       24.3724251950       -6.0067399678  W2        2926            0.0000000000
      8778      2926  TIP3      H2             -9.9742205324       24.3969551950       -4.6709399678  W2        2926            0.0000000000
      8779      2927  TIP3      OH2           -14.8245905324       21.0553751950       -9.0412199678  W2        2927            0.0000000000
      8780      2927  TIP3      H1            -15.1416405324       20.1529051950       -9.0766799678  W2        2927            0.0000000000
      8781      2927  TIP3      H2            -14.0431805324       21.0571151950       -9.5940599678  W2        2927            0.0000000000
      8782      2928  TIP3      OH2           -11.1999705324       23.3073751950       -3.0456599678  W2        2928            0.0000000000
      8783      2928  TIP3      H1            -12.0354405324       23.7613251950       -2.9354199678  W2        2928            0.0000000000
      8784      2928  TIP3      H2            -10.6759105324       23.5832251950       -2.2936699678  W2        2928            0.0000000000
      8785      2929  TIP3      OH2           -10.6557105324       29.5201451950      -11.3610199678  W2        2929            0.0000000000
      8786      2929  TIP3      H1            -11.4006105324       29.0126751950      -11.6832299678  W2        2929            0.0000000000
      8787      2929  TIP3      H2            -10.7899905324       29.5689451950      -10.4145399678  W2        2929            0.0000000000
      8788      2930  TIP3      OH2            -3.5058205324       28.6529651950       -2.5742599678  W2        2930            0.0000000000
      8789      2930  TIP3      H1             -2.8639405324       29.1095951950       -3.1180399678  W2        2930            0.0000000000
      8790      2930  TIP3      H2             -4.3361305324       28.7662051950       -3.0368499678  W2        2930            0.0000000000
      8791      2931  TIP3      OH2            -6.7580305324       22.3341351950      -13.1617599678  W2        2931            0.0000000000
      8792      2931  TIP3      H1             -7.6966105324       22.4456951950      -13.3128799678  W2        2931            0.0000000000
      8793      2931  TIP3      H2             -6.4608205324       23.1908251950      -12.8551899678  W2        2931            0.0000000000
      8794      2932  TIP3      OH2            -9.1365005324       29.7044751950       -0.1241099678  W2        2932            0.0000000000
      8795      2932  TIP3      H1             -9.4818905324       29.3227151950        0.6828500322  W2        2932            0.0000000000
      8796      2932  TIP3      H2             -9.3364905324       30.6378351950       -0.0528199678  W2        2932            0.0000000000
      8797      2933  TIP3      OH2            -6.0396805324       24.2014051950      -11.5010199678  W2        2933            0.0000000000
      8798      2933  TIP3      H1             -5.1477805324       24.0639051950      -11.1818999678  W2        2933            0.0000000000
      8799      2933  TIP3      H2             -5.9833205324       24.9920151950      -12.0376699678  W2        2933            0.0000000000
      8800      2934  TIP3      OH2           -15.5308805324       28.8151451950       -5.5912299678  W2        2934            0.0000000000
      8801      2934  TIP3      H1            -14.7861605324       28.8127151950       -6.1925799678  W2        2934            0.0000000000
      8802      2934  TIP3      H2            -15.4532205324       27.9915251950       -5.1097199678  W2        2934            0.0000000000
      8803      2935  TIP3      OH2            -8.5303005324       30.9785751950      -12.3355599678  W2        2935            0.0000000000
      8804      2935  TIP3      H1             -8.8254605324       31.8053651950      -11.9540799678  W2        2935            0.0000000000
      8805      2935  TIP3      H2             -9.2333005324       30.3592651950      -12.1394199678  W2        2935            0.0000000000
      8806      2936  TIP3      OH2           -18.5229105324       27.2758351950       -0.2763799678  W2        2936            0.0000000000
      8807      2936  TIP3      H1            -18.3000505324       26.8577951950        0.5553700322  W2        2936            0.0000000000
      8808      2936  TIP3      H2            -19.1249005324       26.6633351950       -0.6990999678  W2        2936            0.0000000000
      8809      2937  TIP3      OH2           -11.5064205324       26.7928251950        1.9365900322  W2        2937            0.0000000000
      8810      2937  TIP3      H1            -11.8023405324       26.6271251950        1.0415000322  W2        2937            0.0000000000
      8811      2937  TIP3      H2            -10.5749005324       26.5728551950        1.9259800322  W2        2937            0.0000000000
      8812      2938  TIP3      OH2            -6.8861405324       32.1660251950       -0.1736099678  W2        2938            0.0000000000
      8813      2938  TIP3      H1             -7.7867105324       32.3492851950       -0.4412199678  W2        2938            0.0000000000
      8814      2938  TIP3      H2             -6.8520305324       32.4249551950        0.7472700322  W2        2938            0.0000000000
      8815      2939  TIP3      OH2            -1.1548105324       24.4108151950      -11.8063499678  W2        2939            0.0000000000
      8816      2939  TIP3      H1             -1.7091805324       24.0146151950      -12.4785999678  W2        2939            0.0000000000
      8817      2939  TIP3      H2             -1.0544505324       25.3213351950      -12.0840199678  W2        2939            0.0000000000
      8818      2940  TIP3      OH2            -1.1916105324       30.2109851950        1.0308000322  W2        2940            0.0000000000
      8819      2940  TIP3      H1             -2.0427605324       30.4493651950        0.6634400322  W2        2940            0.0000000000
      8820      2940  TIP3      H2             -0.6012705324       30.1943051950        0.2775100322  W2        2940            0.0000000000
      8821      2941  TIP3      OH2            -2.8596405324       33.1968551950      -11.3411399678  W2        2941            0.0000000000
      8822      2941  TIP3      H1             -3.2325305324       32.3712351950      -11.0320799678  W2        2941            0.0000000000
      8823      2941  TIP3      H2             -2.5822905324       33.0137951950      -12.2387999678  W2        2941            0.0000000000
      8824      2942  TIP3      OH2            -5.6992505324       28.0048051950       -4.3199499678  W2        2942            0.0000000000
      8825      2942  TIP3      H1             -6.6275605324       27.7729951950       -4.3470199678  W2        2942            0.0000000000
      8826      2942  TIP3      H2             -5.2481405324       27.2277851950       -4.6500699678  W2        2942            0.0000000000
      8827      2943  TIP3      OH2           -13.1559405324       32.3329651950       -8.1870799678  W2        2943            0.0000000000
      8828      2943  TIP3      H1            -12.6287205324       33.1064051950       -8.3871999678  W2        2943            0.0000000000
      8829      2943  TIP3      H2            -14.0360905324       32.5578851950       -8.4886799678  W2        2943            0.0000000000
      8830      2944  TIP3      OH2           -17.4011705324       27.1953751950      -13.5998399678  W2        2944            0.0000000000
      8831      2944  TIP3      H1            -16.7851805324       27.8220951950      -13.2203599678  W2        2944            0.0000000000
      8832      2944  TIP3      H2            -18.2629105324       27.5113551950      -13.3281899678  W2        2944            0.0000000000
      8833      2945  TIP3      OH2           -11.7287105324       29.9959551950       -8.6106499678  W2        2945            0.0000000000
      8834      2945  TIP3      H1            -11.9697105324       30.9213951950       -8.5691199678  W2        2945            0.0000000000
      8835      2945  TIP3      H2            -12.4693505324       29.5370851950       -8.2142599678  W2        2945            0.0000000000
      8836      2946  TIP3      OH2           -11.2140505324       34.1453151950       -2.2955399678  W2        2946            0.0000000000
      8837      2946  TIP3      H1            -10.8515805324       34.9998751950       -2.5290999678  W2        2946            0.0000000000
      8838      2946  TIP3      H2            -10.6825305324       33.8534751950       -1.5549099678  W2        2946            0.0000000000
      8839      2947  TIP3      OH2           -13.0456305324       35.0177151950       -9.0654299678  W2        2947            0.0000000000
      8840      2947  TIP3      H1            -13.9955805324       35.1234551950       -9.0140999678  W2        2947            0.0000000000
      8841      2947  TIP3      H2            -12.6938205324       35.8384551950       -8.7206799678  W2        2947            0.0000000000
      8842      2948  TIP3      OH2            -7.6699705324       30.2443851950       -2.5949799678  W2        2948            0.0000000000
      8843      2948  TIP3      H1             -8.0958405324       30.0165551950       -1.7685799678  W2        2948            0.0000000000
      8844      2948  TIP3      H2             -7.0893905324       29.5055651950       -2.7774499678  W2        2948            0.0000000000
      8845      2949  TIP3      OH2            -5.4670805324       31.1734351950      -13.5210799678  W2        2949            0.0000000000
      8846      2949  TIP3      H1             -5.1137705324       30.7934151950      -12.7167299678  W2        2949            0.0000000000
      8847      2949  TIP3      H2             -6.4157305324       31.0799151950      -13.4341499678  W2        2949            0.0000000000
      8848      2950  TIP3      OH2            -5.0115505324       34.7963351950       -0.1254999678  W2        2950            0.0000000000
      8849      2950  TIP3      H1             -5.6132305324       34.2406251950       -0.6208699678  W2        2950            0.0000000000
      8850      2950  TIP3      H2             -4.7301805324       35.4633151950       -0.7517599678  W2        2950            0.0000000000
      8851      2951  TIP3      OH2            -0.9636405324       35.6526851950      -13.3200599678  W2        2951            0.0000000000
      8852      2951  TIP3      H1             -0.2198505324       36.2387351950      -13.4598999678  W2        2951            0.0000000000
      8853      2951  TIP3      H2             -1.6578305324       36.2212651950      -12.9868199678  W2        2951            0.0000000000
      8854      2952  TIP3      OH2           -16.8889605324       22.0291051950       -0.7182399678  W2        2952            0.0000000000
      8855      2952  TIP3      H1            -17.7817305324       22.3676451950       -0.7858399678  W2        2952            0.0000000000
      8856      2952  TIP3      H2            -16.9876805324       21.1737151950       -0.3001599678  W2        2952            0.0000000000
      8857      2953  TIP3      OH2            -4.6011505324       29.8456351950      -11.2942899678  W2        2953            0.0000000000
      8858      2953  TIP3      H1             -4.8783905324       29.1175651950      -10.7381799678  W2        2953            0.0000000000
      8859      2953  TIP3      H2             -3.6738505324       29.9648351950      -11.0890299678  W2        2953            0.0000000000
      8860      2954  TIP3      OH2           -17.2377605324       33.8335451950       -2.2832999678  W2        2954            0.0000000000
      8861      2954  TIP3      H1            -17.0207305324       32.9017851950       -2.3143299678  W2        2954            0.0000000000
      8862      2954  TIP3      H2            -16.9914105324       34.1080451950       -1.4000199678  W2        2954            0.0000000000
      8863      2955  TIP3      OH2           -11.3763005324       32.2850451950      -15.0740799678  W2        2955            0.0000000000
      8864      2955  TIP3      H1            -11.1373205324       31.5368551950      -15.6211899678  W2        2955            0.0000000000
      8865      2955  TIP3      H2            -11.6451705324       31.8972151950      -14.2412999678  W2        2955            0.0000000000
      8866      2956  TIP3      OH2           -12.4392405324       31.8554251950      -12.6178199678  W2        2956            0.0000000000
      8867      2956  TIP3      H1            -12.2924405324       31.3354051950      -11.8277299678  W2        2956            0.0000000000
      8868      2956  TIP3      H2            -12.4420705324       32.7621851950      -12.3112299678  W2        2956            0.0000000000
      8869      2957  TIP3      OH2           -15.9861305324       29.1077551950      -12.1072799678  W2        2957            0.0000000000
      8870      2957  TIP3      H1            -16.6722005324       29.4600051950      -11.5403099678  W2        2957            0.0000000000
      8871      2957  TIP3      H2            -15.4633405324       29.8707151950      -12.3538499678  W2        2957            0.0000000000
      8872      2958  TIP3      OH2            -8.1546205324       21.7701351950       -1.8283799678  W2        2958            0.0000000000
      8873      2958  TIP3      H1             -7.4558305324       21.8440051950       -1.1784099678  W2        2958            0.0000000000
      8874      2958  TIP3      H2             -8.5354805324       20.9056351950       -1.6740899678  W2        2958            0.0000000000
      8875      2959  TIP3      OH2            -7.3701305324       21.4223051950      -10.7311499678  W2        2959            0.0000000000
      8876      2959  TIP3      H1             -7.1503005324       21.8938451950      -11.5346099678  W2        2959            0.0000000000
      8877      2959  TIP3      H2             -6.8117305324       21.8165651950      -10.0610899678  W2        2959            0.0000000000
      8878      2960  TIP3      OH2            -9.7015205324       33.5527851950      -11.8683999678  W2        2960            0.0000000000
      8879      2960  TIP3      H1            -10.5179105324       34.0497551950      -11.8159699678  W2        2960            0.0000000000
      8880      2960  TIP3      H2             -9.1718905324       34.0281351950      -12.5085199678  W2        2960            0.0000000000
      8881      2961  TIP3      OH2           -10.1701405324       23.1501851950       -9.8963099678  W2        2961            0.0000000000
      8882      2961  TIP3      H1             -9.3578805324       23.6545051950       -9.8501399678  W2        2961            0.0000000000
      8883      2961  TIP3      H2            -10.4148405324       23.0051551950       -8.9823499678  W2        2961            0.0000000000
      8884      2962  TIP3      OH2            -9.6345005324       24.1364551950       -0.7116499678  W2        2962            0.0000000000
      8885      2962  TIP3      H1             -9.5154705324       24.7099951950        0.0453900322  W2        2962            0.0000000000
      8886      2962  TIP3      H2             -8.9790405324       23.4483951950       -0.5968699678  W2        2962            0.0000000000
      8887      2963  TIP3      OH2            -9.2864705324       20.2314851950       -8.9581999678  W2        2963            0.0000000000
      8888      2963  TIP3      H1             -9.6331205324       20.8485451950       -8.3137699678  W2        2963            0.0000000000
      8889      2963  TIP3      H2             -8.6277805324       20.7320551950       -9.4396499678  W2        2963            0.0000000000
      8890      2964  TIP3      OH2           -12.3632105324       34.5965051950      -11.8867099678  W2        2964            0.0000000000
      8891      2964  TIP3      H1            -12.2023405324       35.3962551950      -12.3874499678  W2        2964            0.0000000000
      8892      2964  TIP3      H2            -12.5604305324       34.9031051950      -11.0016499678  W2        2964            0.0000000000
      8893      2965  TIP3      OH2           -13.6287705324       21.2944251950      -12.2709499678  W2        2965            0.0000000000
      8894      2965  TIP3      H1            -13.7122905324       22.1827351950      -11.9243099678  W2        2965            0.0000000000
      8895      2965  TIP3      H2            -12.7387405324       21.0290951950      -12.0392699678  W2        2965            0.0000000000
      8896      2966  TIP3      OH2            -3.4299205324       22.0434851950        0.1233200322  W2        2966            0.0000000000
      8897      2966  TIP3      H1             -4.3463405324       22.3056551950        0.0356900322  W2        2966            0.0000000000
      8898      2966  TIP3      H2             -3.0944205324       22.0403851950       -0.7731499678  W2        2966            0.0000000000
      8899      2967  TIP3      OH2            -4.8278205324       25.7935851950       -5.7809499678  W2        2967            0.0000000000
      8900      2967  TIP3      H1             -5.6253805324       25.3786051950       -6.1094499678  W2        2967            0.0000000000
      8901      2967  TIP3      H2             -4.3827105324       25.1029551950       -5.2898999678  W2        2967            0.0000000000
      8902      2968  TIP3      OH2           -15.3702405324       31.7216451950      -13.2104999678  W2        2968            0.0000000000
      8903      2968  TIP3      H1            -14.7780905324       32.4211251950      -12.9342599678  W2        2968            0.0000000000
      8904      2968  TIP3      H2            -14.9109405324       31.2885951950      -13.9300399678  W2        2968            0.0000000000
      8905      2969  TIP3      OH2           -17.0543205324       24.3859451950      -14.0945599678  W2        2969            0.0000000000
      8906      2969  TIP3      H1            -17.0990605324       25.3252551950      -13.9158599678  W2        2969            0.0000000000
      8907      2969  TIP3      H2            -17.9420005324       24.1504351950      -14.3643499678  W2        2969            0.0000000000
      8908      2970  TIP3      OH2            -3.7413605324       35.0498351950       -4.1585999678  W2        2970            0.0000000000
      8909      2970  TIP3      H1             -3.8969305324       35.7282751950       -4.8156699678  W2        2970            0.0000000000
      8910      2970  TIP3      H2             -2.8087205324       35.1217651950       -3.9555399678  W2        2970            0.0000000000
      8911      2971  TIP3      OH2           -16.2461205324       19.1676051950       -5.4214599678  W2        2971            0.0000000000
      8912      2971  TIP3      H1            -16.4751405324       19.2268551950       -6.3489599678  W2        2971            0.0000000000
      8913      2971  TIP3      H2            -16.6887805324       18.3761551950       -5.1150499678  W2        2971            0.0000000000
      8914      2972  TIP3      OH2           -17.3157905324       33.1083151950       -9.2608799678  W2        2972            0.0000000000
      8915      2972  TIP3      H1            -18.1479305324       33.5805851950       -9.2337399678  W2        2972            0.0000000000
      8916      2972  TIP3      H2            -16.7699605324       33.6180751950       -9.8595699678  W2        2972            0.0000000000
      8917      2973  TIP3      OH2           -18.0274205324       35.7206851950        2.0689200322  W2        2973            0.0000000000
      8918      2973  TIP3      H1            -17.4872005324       35.5040851950        2.8288400322  W2        2973            0.0000000000
      8919      2973  TIP3      H2            -18.5086205324       34.9152851950        1.8791700322  W2        2973            0.0000000000
      8920      2974  TIP3      OH2           -13.4300805324       34.6401251950        3.6893400322  W2        2974            0.0000000000
      8921      2974  TIP3      H1            -12.6623605324       34.1812051950        4.0302600322  W2        2974            0.0000000000
      8922      2974  TIP3      H2            -13.4514605324       34.4141051950        2.7594600322  W2        2974            0.0000000000
      8923      2975  TIP3      OH2            -9.3381205324       34.1481851950      -14.9354799678  W2        2975            0.0000000000
      8924      2975  TIP3      H1             -9.9820205324       33.5170451950      -14.6141099678  W2        2975            0.0000000000
      8925      2975  TIP3      H2             -8.5762905324       33.6169851950      -15.1671299678  W2        2975            0.0000000000
      8926      2976  TIP3      OH2            -6.8532105324       33.0202351950        2.4184900322  W2        2976            0.0000000000
      8927      2976  TIP3      H1             -7.2042605324       32.1635351950        2.6615300322  W2        2976            0.0000000000
      8928      2976  TIP3      H2             -6.1268905324       33.1629051950        3.0253900322  W2        2976            0.0000000000
      8929      2977  TIP3      OH2            -4.7338305324       33.9651751950      -14.7016799678  W2        2977            0.0000000000
      8930      2977  TIP3      H1             -4.4507905324       33.1706951950      -14.2489899678  W2        2977            0.0000000000
      8931      2977  TIP3      H2             -3.9940405324       34.1982751950      -15.2625699678  W2        2977            0.0000000000
      8932      2978  TIP3      OH2           -18.1204705324       29.5310951950        3.0233500322  W2        2978            0.0000000000
      8933      2978  TIP3      H1            -17.9764205324       28.6291651950        2.7370200322  W2        2978            0.0000000000
      8934      2978  TIP3      H2            -18.8927305324       29.8173051950        2.5355800322  W2        2978            0.0000000000
      8935      2979  TIP3      OH2           -13.7791005324       29.8746651950      -14.8441899678  W2        2979            0.0000000000
      8936      2979  TIP3      H1            -13.7146905324       29.0806251950      -14.3135499678  W2        2979            0.0000000000
      8937      2979  TIP3      H2            -13.1261805324       29.7559451950      -15.5339899678  W2        2979            0.0000000000
      8938      2980  TIP3      OH2           -11.4648605324       29.5009051950        2.4559900322  W2        2980            0.0000000000
      8939      2980  TIP3      H1            -11.7934805324       29.7717151950        1.5987300322  W2        2980            0.0000000000
      8940      2980  TIP3      H2            -11.3130405324       28.5598851950        2.3684900322  W2        2980            0.0000000000
      8941      2981  TIP3      OH2            -8.4267605324       30.9218351950      -15.1083899678  W2        2981            0.0000000000
      8942      2981  TIP3      H1             -8.6953505324       31.1020451950      -14.2074999678  W2        2981            0.0000000000
      8943      2981  TIP3      H2             -8.6332005324       29.9964551950      -15.2398099678  W2        2981            0.0000000000
      8944      2982  TIP3      OH2            -5.7303405324       29.4166351950       -0.1607799678  W2        2982            0.0000000000
      8945      2982  TIP3      H1             -4.9848605324       30.0050051950       -0.2803799678  W2        2982            0.0000000000
      8946      2982  TIP3      H2             -6.4876605324       29.9986051950       -0.0974699678  W2        2982            0.0000000000
      8947      2983  TIP3      OH2           -17.2878205324       26.7314251950        2.4432800322  W2        2983            0.0000000000
      8948      2983  TIP3      H1            -16.8797005324       25.8740851950        2.3223400322  W2        2983            0.0000000000
      8949      2983  TIP3      H2            -17.5480605324       26.7455551950        3.3643100322  W2        2983            0.0000000000
      8950      2984  TIP3      OH2           -12.6297205324       27.8472851950      -12.5383899678  W2        2984            0.0000000000
      8951      2984  TIP3      H1            -13.0895205324       27.3631151950      -11.8525399678  W2        2984            0.0000000000
      8952      2984  TIP3      H2            -12.3748505324       27.1788251950      -13.1743399678  W2        2984            0.0000000000
      8953      2985  TIP3      OH2           -13.3407905324       25.7399951950       -0.1824299678  W2        2985            0.0000000000
      8954      2985  TIP3      H1            -13.9591805324       26.4146551950        0.0980400322  W2        2985            0.0000000000
      8955      2985  TIP3      H2            -12.9966705324       26.0613851950       -1.0158099678  W2        2985            0.0000000000
      8956      2986  TIP3      OH2           -11.5586805324       26.0904651950      -14.2760699678  W2        2986            0.0000000000
      8957      2986  TIP3      H1            -11.7391805324       25.9355851950      -15.2032399678  W2        2986            0.0000000000
      8958      2986  TIP3      H2            -10.6086305324       26.1983351950      -14.2312799678  W2        2986            0.0000000000
      8959      2987  TIP3      OH2            -8.3209705324       28.2115251950        3.0950500322  W2        2987            0.0000000000
      8960      2987  TIP3      H1             -7.3678505324       28.2954351950        3.0676500322  W2        2987            0.0000000000
      8961      2987  TIP3      H2             -8.4815105324       27.4997051950        3.7145400322  W2        2987            0.0000000000
      8962      2988  TIP3      OH2            -2.1688505324       28.4448851950      -14.8302599678  W2        2988            0.0000000000
      8963      2988  TIP3      H1             -2.4423705324       28.0204351950      -15.6434299678  W2        2988            0.0000000000
      8964      2988  TIP3      H2             -2.1294405324       29.3763351950      -15.0472199678  W2        2988            0.0000000000
      8965      2989  TIP3      OH2           -13.0014205324       23.0950751950        0.8998800322  W2        2989            0.0000000000
      8966      2989  TIP3      H1            -12.8513305324       22.3662051950        0.2978500322  W2        2989            0.0000000000
      8967      2989  TIP3      H2            -12.9991805324       23.8722451950        0.3411000322  W2        2989            0.0000000000
      8968      2990  TIP3      OH2           -12.5888505324       21.4646551950       -1.6073799678  W2        2990            0.0000000000
      8969      2990  TIP3      H1            -12.0531005324       21.9163251950       -2.2594499678  W2        2990            0.0000000000
      8970      2990  TIP3      H2            -13.4408905324       21.3566351950       -2.0299699678  W2        2990            0.0000000000
      8971      2991  TIP3      OH2           -11.0070105324       26.9042751950       -1.3678599678  W2        2991            0.0000000000
      8972      2991  TIP3      H1            -10.2565305324       26.7480251950       -1.9410799678  W2        2991            0.0000000000
      8973      2991  TIP3      H2            -11.3461805324       27.7559351950       -1.6433099678  W2        2991            0.0000000000
      8974      2992  TIP3      OH2            -6.5913905324       24.7194551950        3.6606700322  W2        2992            0.0000000000
      8975      2992  TIP3      H1             -6.3992605324       23.7883951950        3.5491200322  W2        2992            0.0000000000
      8976      2992  TIP3      H2             -5.7337605324       25.1444051950        3.6502100322  W2        2992            0.0000000000
      8977      2993  TIP3      OH2            -5.2746705324       27.5079751950        1.7379400322  W2        2993            0.0000000000
      8978      2993  TIP3      H1             -5.5561705324       28.2174351950        1.1603200322  W2        2993            0.0000000000
      8979      2993  TIP3      H2             -4.3322405324       27.4352751950        1.5870600322  W2        2993            0.0000000000
      8980      2994  TIP3      OH2           -14.5227905324       24.2934251950        2.8114400322  W2        2994            0.0000000000
      8981      2994  TIP3      H1            -15.2898905324       23.7609051950        2.6012000322  W2        2994            0.0000000000
      8982      2994  TIP3      H2            -13.8438905324       23.9834651950        2.2120700322  W2        2994            0.0000000000
      8983      2995  TIP3      OH2           -11.7833005324       18.9212251950       -1.1760199678  W2        2995            0.0000000000
      8984      2995  TIP3      H1            -11.8813405324       19.8675451950       -1.2813999678  W2        2995            0.0000000000
      8985      2995  TIP3      H2            -12.5256805324       18.5486051950       -1.6516699678  W2        2995            0.0000000000
      8986      2996  TIP3      OH2           -10.5192505324       23.2427651950        2.3878200322  W2        2996            0.0000000000
      8987      2996  TIP3      H1            -10.7547105324       23.0234351950        3.2893100322  W2        2996            0.0000000000
      8988      2996  TIP3      H2            -11.3025605324       23.0358851950        1.8780700322  W2        2996            0.0000000000
      8989      2997  TIP3      OH2            -7.8035905324       22.3701151950        1.4631700322  W2        2997            0.0000000000
      8990      2997  TIP3      H1             -8.7510505324       22.4020851950        1.5955000322  W2        2997            0.0000000000
      8991      2997  TIP3      H2             -7.4909205324       21.7448251950        2.1169900322  W2        2997            0.0000000000
      8992      2998  TIP3      OH2            -6.1694405324       21.0042251950        3.4683600322  W2        2998            0.0000000000
      8993      2998  TIP3      H1             -6.2662605324       20.0519551950        3.4625500322  W2        2998            0.0000000000
      8994      2998  TIP3      H2             -6.4911305324       21.2729051950        4.3289100322  W2        2998            0.0000000000
      8995      2999  TIP3      OH2           -16.3425105324       22.2138051950        2.5159100322  W2        2999            0.0000000000
      8996      2999  TIP3      H1            -16.1307705324       21.5074151950        1.9056600322  W2        2999            0.0000000000
      8997      2999  TIP3      H2            -16.4537605324       21.7764051950        3.3600300322  W2        2999            0.0000000000
      8998      3000  TIP3      OH2           -11.5614905324       18.2149651950        1.4952600322  W2        3000            0.0000000000
      8999      3000  TIP3      H1            -10.8496505324       17.5751851950        1.4811700322  W2        3000            0.0000000000
      9000      3000  TIP3      H2            -11.6624505324       18.4817951950        0.5815700322  W2        3000            0.0000000000
      9001      3001  TIP3      OH2           -11.2077405324       19.8978051950        3.5488900322  W2        3001            0.0000000000
      9002      3001  TIP3      H1            -11.3395205324       19.4221851950        2.7287400322  W2        3001            0.0000000000
      9003      3001  TIP3      H2            -11.8070005324       20.6421651950        3.4936000322  W2        3001            0.0000000000
      9004      3002  TIP3      OH2           -11.6615105324       36.7808351950      -13.2747099678  W2        3002            0.0000000000
      9005      3002  TIP3      H1            -10.7284405324       36.9387051950      -13.1308699678  W2        3002            0.0000000000
      9006      3002  TIP3      H2            -11.9256305324       37.4561351950      -13.8995599678  W2        3002            0.0000000000
      9007      3003  TIP3      OH2           -18.0930205324       31.4172151950      -13.7918999678  W2        3003            0.0000000000
      9008      3003  TIP3      H1            -17.1791005324       31.4961051950      -13.5185099678  W2        3003            0.0000000000
      9009      3003  TIP3      H2            -18.0857105324       30.7301751950      -14.4583399678  W2        3003            0.0000000000
      9010      3004  TIP3      OH2           -19.4439605324       36.8100651950       -8.7145099678  W2        3004            0.0000000000
      9011      3004  TIP3      H1            -20.0912505324       36.3482351950       -9.2473899678  W2        3004            0.0000000000
      9012      3004  TIP3      H2            -19.0895005324       36.1383951950       -8.1318899678  W2        3004            0.0000000000
      9013      3005  TIP3      OH2           -18.5740405324       34.8907651950       -6.9098899678  W2        3005            0.0000000000
      9014      3005  TIP3      H1            -18.9083605324       34.0104951950       -6.7378699678  W2        3005            0.0000000000
      9015      3005  TIP3      H2            -18.3518005324       35.2362651950       -6.0453299678  W2        3005            0.0000000000
      9016      3006  TIP3      OH2            -1.0255605324       35.7004051950       -3.9294099678  W2        3006            0.0000000000
      9017      3006  TIP3      H1             -1.0468905324       35.8852451950       -2.9904699678  W2        3006            0.0000000000
      9018      3006  TIP3      H2             -0.3349405324       36.2688051950       -4.2702699678  W2        3006            0.0000000000
      9019      3007  TIP3      OH2            -1.4622705324       35.2675151950       -1.0074999678  W2        3007            0.0000000000
      9020      3007  TIP3      H1             -1.9494005324       34.5319251950       -1.3787599678  W2        3007            0.0000000000
      9021      3007  TIP3      H2             -0.9130005324       34.8739051950       -0.3295599678  W2        3007            0.0000000000
      9022      3008  TIP3      OH2            -3.0115405324       31.0573251950        3.6305300322  W2        3008            0.0000000000
      9023      3008  TIP3      H1             -3.8774305324       30.9522951950        4.0247600322  W2        3008            0.0000000000
      9024      3008  TIP3      H2             -2.6349505324       31.8156551950        4.0770000322  W2        3008            0.0000000000
      9025      3009  TIP3      OH2            -1.7105705324       29.3136951950      -10.8552199678  W2        3009            0.0000000000
      9026      3009  TIP3      H1             -0.8604305324       29.7347851950      -10.7280599678  W2        3009            0.0000000000
      9027      3009  TIP3      H2             -1.7050605324       28.5737051950      -10.2480799678  W2        3009            0.0000000000
      9028      3010  TIP3      OH2            -1.3160105324       27.3674351950       -9.0316499678  W2        3010            0.0000000000
      9029      3010  TIP3      H1             -2.0425505324       26.8876951950       -8.6338899678  W2        3010            0.0000000000
      9030      3010  TIP3      H2             -0.7346805324       27.5729051950       -8.2994899678  W2        3010            0.0000000000
      9031      3011  TIP3      OH2            -1.5568905324       30.1521851950       -4.0838899678  W2        3011            0.0000000000
      9032      3011  TIP3      H1             -0.7234705324       29.7741851950       -4.3645299678  W2        3011            0.0000000000
      9033      3011  TIP3      H2             -1.4448605324       31.0953051950       -4.2029799678  W2        3011            0.0000000000
      9034      3012  TIP3      OH2            -3.0706605324       33.0299351950       -1.7770499678  W2        3012            0.0000000000
      9035      3012  TIP3      H1             -3.7181305324       33.3550851950       -1.1515299678  W2        3012            0.0000000000
      9036      3012  TIP3      H2             -3.5882605324       32.5897051950       -2.4512199678  W2        3012            0.0000000000
      9037      3013  TIP3      OH2            -1.0477005324       27.2682851950      -12.6405199678  W2        3013            0.0000000000
      9038      3013  TIP3      H1             -1.5695905324       27.6246951950      -13.3594299678  W2        3013            0.0000000000
      9039      3013  TIP3      H2             -1.0807805324       27.9430651950      -11.9624299678  W2        3013            0.0000000000
      9040      3014  TIP3      OH2            -2.6988005324       24.5078451950      -14.0898099678  W2        3014            0.0000000000
      9041      3014  TIP3      H1             -2.6023605324       25.1745451950      -14.7698399678  W2        3014            0.0000000000
      9042      3014  TIP3      H2             -2.8388405324       23.6924751950      -14.5712599678  W2        3014            0.0000000000
      9043      3015  TIP3      OH2            -3.5293305324       25.8880851950       -8.4687799678  W2        3015            0.0000000000
      9044      3015  TIP3      H1             -3.6794505324       24.9429451950       -8.4889999678  W2        3015            0.0000000000
      9045      3015  TIP3      H2             -3.8828805324       26.1692251950       -7.6248699678  W2        3015            0.0000000000
      9046      3016  TIP3      OH2           -18.4940905324       27.9663051950       -4.4583999678  W2        3016            0.0000000000
      9047      3016  TIP3      H1            -18.3098005324       27.8844751950       -5.3941099678  W2        3016            0.0000000000
      9048      3016  TIP3      H2            -17.6448005324       27.8420051950       -4.0347599678  W2        3016            0.0000000000
      9049      3017  TIP3      OH2            -2.6730405324       27.8584151950        1.1700500322  W2        3017            0.0000000000
      9050      3017  TIP3      H1             -2.0903105324       27.1236451950        1.3617700322  W2        3017            0.0000000000
      9051      3017  TIP3      H2             -2.1091105324       28.6304451950        1.2166300322  W2        3017            0.0000000000
      9052      3018  TIP3      OH2            -1.1763305324       25.7609951950        1.8545900322  W2        3018            0.0000000000
      9053      3018  TIP3      H1             -2.0396605324       25.3822051950        1.6890600322  W2        3018            0.0000000000
      9054      3018  TIP3      H2             -0.5719605324       25.0224751950        1.7801700322  W2        3018            0.0000000000
      9055      3019  TIP3      OH2            -3.4514205324       21.9158251950      -14.9722599678  W2        3019            0.0000000000
      9056      3019  TIP3      H1             -2.8408405324       21.5445051950      -14.3354399678  W2        3019            0.0000000000
      9057      3019  TIP3      H2             -4.2882705324       21.4945151950      -14.7762599678  W2        3019            0.0000000000
      9058      3020  TIP3      OH2            -3.8188505324       23.4706651950      -10.0062699678  W2        3020            0.0000000000
      9059      3020  TIP3      H1             -3.5391405324       22.5637051950       -9.8820999678  W2        3020            0.0000000000
      9060      3020  TIP3      H2             -3.0596805324       23.9048151950      -10.3953499678  W2        3020            0.0000000000
      9061      3021  TIP3      OH2            -3.2070205324       24.0524051950       -4.5703799678  W2        3021            0.0000000000
      9062      3021  TIP3      H1             -2.2742205324       24.2643951950       -4.6047799678  W2        3021            0.0000000000
      9063      3021  TIP3      H2             -3.4422705324       24.1536151950       -3.6480799678  W2        3021            0.0000000000
      9064      3022  TIP3      OH2            -3.1778305324       24.7889351950       -1.7944399678  W2        3022            0.0000000000
      9065      3022  TIP3      H1             -4.0207005324       25.0569751950       -1.4284599678  W2        3022            0.0000000000
      9066      3022  TIP3      H2             -2.7354005324       25.6111251950       -2.0053299678  W2        3022            0.0000000000
      9067      3023  TIP3      OH2           -18.8966105324       23.2368051950        1.6824800322  W2        3023            0.0000000000
      9068      3023  TIP3      H1            -17.9771205324       23.1146351950        1.9187900322  W2        3023            0.0000000000
      9069      3023  TIP3      H2            -19.3461605324       22.4867751950        2.0718300322  W2        3023            0.0000000000
      9070      3024  TIP3      OH2            -0.8946705324       18.7689551950        3.5590600322  W2        3024            0.0000000000
      9071      3024  TIP3      H1             -0.5449705324       18.1153051950        2.9535300322  W2        3024            0.0000000000
      9072      3024  TIP3      H2             -0.7477205324       19.6063651950        3.1193200322  W2        3024            0.0000000000
      9073      3025  TIP3      OH2            -3.2053705324       20.7335951950       -9.9580699678  W2        3025            0.0000000000
      9074      3025  TIP3      H1             -3.0228705324       20.2847451950       -9.1325699678  W2        3025            0.0000000000
      9075      3025  TIP3      H2             -3.8050805324       20.1490351950      -10.4216099678  W2        3025            0.0000000000
      9076      3026  TIP3      OH2           -17.6753605324       21.5489651950       -5.4262299678  W2        3026            0.0000000000
      9077      3026  TIP3      H1            -17.2302005324       20.7572151950       -5.1242599678  W2        3026            0.0000000000
      9078      3026  TIP3      H2            -17.2090605324       22.2654851950       -4.9956699678  W2        3026            0.0000000000
      9079      3027  TIP3      OH2           -19.3713305324       24.5482651950       -4.3572099678  W2        3027            0.0000000000
      9080      3027  TIP3      H1            -18.8793505324       24.3273151950       -5.1480099678  W2        3027            0.0000000000
      9081      3027  TIP3      H2            -19.0092405324       25.3886051950       -4.0762599678  W2        3027            0.0000000000
      9082      3028  TIP3      OH2            -1.3749505324       20.8784151950        1.9081900322  W2        3028            0.0000000000
      9083      3028  TIP3      H1             -2.2923805324       21.1491251950        1.8725400322  W2        3028            0.0000000000
      9084      3028  TIP3      H2             -1.2520105324       20.3432551950        1.1241600322  W2        3028            0.0000000000
      9085      3029  TIP3      OH2            -1.3387505324       20.8014051950      -13.4300399678  W2        3029            0.0000000000
      9086      3029  TIP3      H1             -0.9264905324       20.0799751950      -13.9052399678  W2        3029            0.0000000000
      9087      3029  TIP3      H2             -0.6571005324       21.4708651950      -13.3716099678  W2        3029            0.0000000000
      9088      3030  TIP3      OH2           -19.0576805324       20.8061751950      -10.3029699678  W2        3030            0.0000000000
      9089      3030  TIP3      H1            -19.9828405324       21.0148351950      -10.4324199678  W2        3030            0.0000000000
      9090      3030  TIP3      H2            -18.6036905324       21.2902551950      -10.9927399678  W2        3030            0.0000000000
      9091      3031  TIP3      OH2            -4.2869605324       35.7903451950       -8.3572299678  W2        3031            0.0000000000
      9092      3031  TIP3      H1             -3.6346705324       35.4425551950       -8.9653199678  W2        3031            0.0000000000
      9093      3031  TIP3      H2             -3.7765805324       36.2786651950       -7.7112599678  W2        3031            0.0000000000
      9094      3032  TIP3      OH2           -19.0941405324       19.5440751950       -1.9587199678  W2        3032            0.0000000000
      9095      3032  TIP3      H1            -19.7590905324       19.2981051950       -1.3156299678  W2        3032            0.0000000000
      9096      3032  TIP3      H2            -19.5370105324       20.1661151950       -2.5359199678  W2        3032            0.0000000000
      9097      3033  TIP3      OH2           -16.9022105324       32.7194851950        2.1858600322  W2        3033            0.0000000000
      9098      3033  TIP3      H1            -17.7229605324       32.8941351950        1.7253300322  W2        3033            0.0000000000
      9099      3033  TIP3      H2            -17.1544305324       32.6459551950        3.1063000322  W2        3033            0.0000000000
      9100      3034  TIP3      OH2           -13.9479205324       33.6936051950       -1.5557399678  W2        3034            0.0000000000
      9101      3034  TIP3      H1            -14.3728105324       34.5034551950       -1.8382799678  W2        3034            0.0000000000
      9102      3034  TIP3      H2            -13.0436405324       33.7790151950       -1.8577599678  W2        3034            0.0000000000
      9103      3035  TIP3      OH2            -9.6367805324       35.0926051950        1.4036300322  W2        3035            0.0000000000
      9104      3035  TIP3      H1             -9.4520305324       34.7592151950        2.2816600322  W2        3035            0.0000000000
      9105      3035  TIP3      H2             -8.7903305324       35.4024651950        1.0815500322  W2        3035            0.0000000000
      9106      3036  TIP3      OH2            -7.2917405324       36.3784951950        0.6477700322  W2        3036            0.0000000000
      9107      3036  TIP3      H1             -6.6148505324       35.7457251950        0.4076900322  W2        3036            0.0000000000
      9108      3036  TIP3      H2             -6.9698605324       36.7795451950        1.4551000322  W2        3036            0.0000000000
      9109      3037  TIP3      OH2            -2.3743605324       18.9680451950       -0.2727299678  W2        3037            0.0000000000
      9110      3037  TIP3      H1             -3.1870105324       19.2930751950       -0.6602599678  W2        3037            0.0000000000
      9111      3037  TIP3      H2             -2.1415105324       18.2078951950       -0.8058199678  W2        3037            0.0000000000
      9112      3038  TIP3      OH2           -16.5462505324       36.9499951950       -1.5082099678  W2        3038            0.0000000000
      9113      3038  TIP3      H1            -17.2666105324       37.3900951950       -1.9594399678  W2        3038            0.0000000000
      9114      3038  TIP3      H2            -16.9118505324       36.6994651950       -0.6598099678  W2        3038            0.0000000000
      9115      3039  TIP3      OH2           -14.0789905324       36.5503851950       -2.4784899678  W2        3039            0.0000000000
      9116      3039  TIP3      H1            -14.9437705324       36.6222351950       -2.0744799678  W2        3039            0.0000000000
      9117      3039  TIP3      H2            -14.1340905324       37.0971151950       -3.2622399678  W2        3039            0.0000000000
      9118      3040  TIP3      OH2            -9.3684305324       36.4382751950       -3.3028899678  W2        3040            0.0000000000
      9119      3040  TIP3      H1             -9.8250305324       36.9672451950       -3.9570499678  W2        3040            0.0000000000
      9120      3040  TIP3      H2             -9.2056305324       37.0414151950       -2.5776599678  W2        3040            0.0000000000
      9121      3041  TIP3      OH2            -7.0408005324       35.3162351950       -2.3578599678  W2        3041            0.0000000000
      9122      3041  TIP3      H1             -7.9454305324       35.4812551950       -2.6236499678  W2        3041            0.0000000000
      9123      3041  TIP3      H2             -6.6119405324       36.1694551950       -2.4235199678  W2        3041            0.0000000000
      9124      3042  TIP3      OH2            -4.4366105324       36.8861451950       -2.0630799678  W2        3042            0.0000000000
      9125      3042  TIP3      H1             -4.6184105324       37.8020351950       -2.2735899678  W2        3042            0.0000000000
      9126      3042  TIP3      H2             -4.2598305324       36.4758551950       -2.9096199678  W2        3042            0.0000000000
      9127      3043  TIP3      OH2           -17.1314405324       35.5732451950       -4.5980299678  W2        3043            0.0000000000
      9128      3043  TIP3      H1            -17.1498405324       35.1477551950       -3.7407999678  W2        3043            0.0000000000
      9129      3043  TIP3      H2            -16.3266505324       35.2547451950       -5.0068099678  W2        3043            0.0000000000
      9130      3044  TIP3      OH2           -14.9901305324       34.2831151950       -5.9430399678  W2        3044            0.0000000000
      9131      3044  TIP3      H1            -15.2090605324       33.3668551950       -5.7734399678  W2        3044            0.0000000000
      9132      3044  TIP3      H2            -14.1659105324       34.4231551950       -5.4768999678  W2        3044            0.0000000000
      9133      3045  TIP3      OH2           -12.4528805324       34.7530451950       -5.0942399678  W2        3045            0.0000000000
      9134      3045  TIP3      H1            -12.2403105324       33.8649451950       -5.3811499678  W2        3045            0.0000000000
      9135      3045  TIP3      H2            -12.3883705324       34.7188151950       -4.1398399678  W2        3045            0.0000000000
      9136      3046  TIP3      OH2            -8.9445105324       20.4171051950       -5.9499099678  W2        3046            0.0000000000
      9137      3046  TIP3      H1             -9.6188305324       19.7876651950       -5.6943299678  W2        3046            0.0000000000
      9138      3046  TIP3      H2             -8.3805905324       19.9329951950       -6.5531199678  W2        3046            0.0000000000
      9139      3047  TIP3      OH2            -3.8017905324       18.5245051950       -5.8371999678  W2        3047            0.0000000000
      9140      3047  TIP3      H1             -3.1980305324       19.0720451950       -6.3390999678  W2        3047            0.0000000000
      9141      3047  TIP3      H2             -4.6715905324       18.8435451950       -6.0777899678  W2        3047            0.0000000000
      9142      3048  TIP3      OH2            -2.0747505324       19.6633751950       -7.5041099678  W2        3048            0.0000000000
      9143      3048  TIP3      H1             -1.4630005324       19.1489451950       -8.0307499678  W2        3048            0.0000000000
      9144      3048  TIP3      H2             -1.6924105324       20.5405851950       -7.4806699678  W2        3048            0.0000000000
      9145      3049  TIP3      OH2           -16.6177605324       19.0511351950       -8.1279199678  W2        3049            0.0000000000
      9146      3049  TIP3      H1            -17.3947805324       18.8166251950       -8.6353299678  W2        3049            0.0000000000
      9147      3049  TIP3      H2            -16.0874005324       18.2543451950       -8.1191199678  W2        3049            0.0000000000
      9148      3050  TIP3      OH2           -17.7814205324       18.8489451950      -12.3243099678  W2        3050            0.0000000000
      9149      3050  TIP3      H1            -17.3423505324       19.4599951950      -12.9159599678  W2        3050            0.0000000000
      9150      3050  TIP3      H2            -18.4151805324       19.3873551950      -11.8503099678  W2        3050            0.0000000000
      9151      3051  TIP3      OH2           -12.0385005324       18.9778451950       -8.3146099678  W2        3051            0.0000000000
      9152      3051  TIP3      H1            -11.1641605324       19.3662751950       -8.3441799678  W2        3051            0.0000000000
      9153      3051  TIP3      H2            -12.1744205324       18.7626251950       -7.3918899678  W2        3051            0.0000000000
      9154      3052  TIP3      OH2            -6.4816605324       19.0078251950       -6.6654399678  W2        3052            0.0000000000
      9155      3052  TIP3      H1             -6.4055005324       19.1029851950       -7.6148399678  W2        3052            0.0000000000
      9156      3052  TIP3      H2             -6.7567405324       18.1001151950       -6.5365299678  W2        3052            0.0000000000
      9157      3053  TIP3      OH2            -5.1284005324       19.0336051950      -10.9729399678  W2        3053            0.0000000000
      9158      3053  TIP3      H1             -5.8312905324       19.6485251950      -11.1827999678  W2        3053            0.0000000000
      9159      3053  TIP3      H2             -5.5732605324       18.1962751950      -10.8418499678  W2        3053            0.0000000000
      9160      3054  TIP3      OH2           -17.8804705324       34.7971651950      -11.4267999678  W2        3054            0.0000000000
      9161      3054  TIP3      H1            -18.5654805324       34.7590551950      -12.0942899678  W2        3054            0.0000000000
      9162      3054  TIP3      H2            -17.8767505324       35.7099251950      -11.1385899678  W2        3054            0.0000000000
      9163      3055  TIP3      OH2           -15.9205105324       20.7650951950      -13.8818999678  W2        3055            0.0000000000
      9164      3055  TIP3      H1            -15.4291705324       20.1353351950      -14.4093499678  W2        3055            0.0000000000
      9165      3055  TIP3      H2            -15.2968805324       21.0610351950      -13.2187799678  W2        3055            0.0000000000
      9166      3056  TIP3      OH2           -10.8945005324       21.0582451950      -11.4248499678  W2        3056            0.0000000000
      9167      3056  TIP3      H1            -10.7163705324       20.4115651950      -10.7419899678  W2        3056            0.0000000000
      9168      3056  TIP3      H2            -10.9478805324       21.8920151950      -10.9577399678  W2        3056            0.0000000000
      9169      3057  TIP3      OH2            -9.0161205324       36.0066551950      -13.0291799678  W2        3057            0.0000000000
      9170      3057  TIP3      H1             -8.1501005324       36.3733951950      -13.2073599678  W2        3057            0.0000000000
      9171      3057  TIP3      H2             -9.2628405324       35.5674551950      -13.8430999678  W2        3057            0.0000000000
      9172      3058  TIP3      OH2            -2.3071605324       35.5696851950      -10.3500699678  W2        3058            0.0000000000
      9173      3058  TIP3      H1             -2.5014505324       34.8218951950      -10.9151099678  W2        3058            0.0000000000
      9174      3058  TIP3      H2             -2.3461505324       36.3276951950      -10.9332799678  W2        3058            0.0000000000
      9175      3059  TIP3      OH2           -16.6599605324       19.5653251950        1.3897000322  W2        3059            0.0000000000
      9176      3059  TIP3      H1            -17.0261405324       18.7995851950        1.8321700322  W2        3059            0.0000000000
      9177      3059  TIP3      H2            -15.7471105324       19.5943451950        1.6762100322  W2        3059            0.0000000000
      9178      3060  TIP3      OH2           -14.6868805324       18.9157651950        2.9254100322  W2        3060            0.0000000000
      9179      3060  TIP3      H1            -13.7885205324       18.6417851950        2.7407500322  W2        3060            0.0000000000
      9180      3060  TIP3      H2            -15.0735705324       18.1733651950        3.3896700322  W2        3060            0.0000000000
      9181      3061  TIP3      OH2           -16.0623505324       35.7172451950      -14.4015899678  W2        3061            0.0000000000
      9182      3061  TIP3      H1            -16.3298905324       36.0035351950      -13.5282799678  W2        3061            0.0000000000
      9183      3061  TIP3      H2            -15.2910905324       35.1711651950      -14.2493399678  W2        3061            0.0000000000
      9184      3062  TIP3      OH2            -6.2656505324       18.2482951950        3.1076900322  W2        3062            0.0000000000
      9185      3062  TIP3      H1             -6.1889305324       17.8223651950        3.9614600322  W2        3062            0.0000000000
      9186      3062  TIP3      H2             -5.3719905324       18.2617651950        2.7650400322  W2        3062            0.0000000000
      9187      3063  TIP3      OH2            -3.0895405324       34.3209251950        1.8001100322  W2        3063            0.0000000000
      9188      3063  TIP3      H1             -3.8713505324       34.1347251950        1.2801700322  W2        3063            0.0000000000
      9189      3063  TIP3      H2             -3.1615505324       35.2503551950        2.0173600322  W2        3063            0.0000000000
      9190      3064  TIP3      OH2            11.3164994676       28.2073651950       -8.1691699678  W2        3064            0.0000000000
      9191      3064  TIP3      H1             11.4056094676       29.1511851950       -8.3014599678  W2        3064            0.0000000000
      9192      3064  TIP3      H2             10.6782594676       27.9320051950       -8.8272299678  W2        3064            0.0000000000
      9193      3065  TIP3      OH2            10.2496294676       27.4624351950       -4.7503499678  W2        3065            0.0000000000
      9194      3065  TIP3      H1             10.2113794676       26.8160651950       -4.0453899678  W2        3065            0.0000000000
      9195      3065  TIP3      H2              9.9272794676       26.9958751950       -5.5214799678  W2        3065            0.0000000000
      9196      3066  TIP3      OH2             2.6181294676       27.0766451950       -3.1573599678  W2        3066            0.0000000000
      9197      3066  TIP3      H1              2.6593394676       26.4509751950       -2.4341199678  W2        3066            0.0000000000
      9198      3066  TIP3      H2              3.3208994676       27.7005051950       -2.9753199678  W2        3066            0.0000000000
      9199      3067  TIP3      OH2            13.9556494676       30.4014751950       -6.4488399678  W2        3067            0.0000000000
      9200      3067  TIP3      H1             13.5149194676       29.6810751950       -5.9982799678  W2        3067            0.0000000000
      9201      3067  TIP3      H2             13.9426194676       31.1221951950       -5.8190699678  W2        3067            0.0000000000
      9202      3068  TIP3      OH2             3.5414394676       31.5265351950       -4.6224499678  W2        3068            0.0000000000
      9203      3068  TIP3      H1              3.1719594676       30.7245851950       -4.9920199678  W2        3068            0.0000000000
      9204      3068  TIP3      H2              4.4825494676       31.3580251950       -4.5761099678  W2        3068            0.0000000000
      9205      3069  TIP3      OH2             0.1514894676       25.1867951950       -9.2295699678  W2        3069            0.0000000000
      9206      3069  TIP3      H1             -0.2961705324       26.0326651950       -9.2479199678  W2        3069            0.0000000000
      9207      3069  TIP3      H2             -0.4093905324       24.6072151950       -9.7450599678  W2        3069            0.0000000000
      9208      3070  TIP3      OH2             0.8620994676       27.3487551950       -7.1037699678  W2        3070            0.0000000000
      9209      3070  TIP3      H1              1.0754494676       26.5789151950       -6.5764699678  W2        3070            0.0000000000
      9210      3070  TIP3      H2              1.5998594676       27.4384251950       -7.7070099678  W2        3070            0.0000000000
      9211      3071  TIP3      OH2            11.0671994676       35.5056451950       -6.2367999678  W2        3071            0.0000000000
      9212      3071  TIP3      H1             11.6868394676       34.8291151950       -6.5098799678  W2        3071            0.0000000000
      9213      3071  TIP3      H2             10.8589394676       35.2877251950       -5.3283099678  W2        3071            0.0000000000
      9214      3072  TIP3      OH2             8.6390694676       29.8945751950       -4.3442499678  W2        3072            0.0000000000
      9215      3072  TIP3      H1              8.9428594676       29.2087151950       -4.9388399678  W2        3072            0.0000000000
      9216      3072  TIP3      H2              9.3604694676       30.0134451950       -3.7264499678  W2        3072            0.0000000000
      9217      3073  TIP3      OH2            17.3020494676       21.4961051950       -3.4836299678  W2        3073            0.0000000000
      9218      3073  TIP3      H1             17.3512694676       22.1062251950       -2.7477199678  W2        3073            0.0000000000
      9219      3073  TIP3      H2             17.7275594676       21.9571951950       -4.2065199678  W2        3073            0.0000000000
      9220      3074  TIP3      OH2            11.7797694676       24.2888151950       -4.0167699678  W2        3074            0.0000000000
      9221      3074  TIP3      H1             11.9223594676       23.3425151950       -3.9966099678  W2        3074            0.0000000000
      9222      3074  TIP3      H2             11.6736694676       24.4957951950       -4.9452799678  W2        3074            0.0000000000
      9223      3075  TIP3      OH2             4.9345994676       22.3904551950       -6.7442899678  W2        3075            0.0000000000
      9224      3075  TIP3      H1              4.9777094676       23.2503051950       -7.1626599678  W2        3075            0.0000000000
      9225      3075  TIP3      H2              4.4770094676       21.8379251950       -7.3779699678  W2        3075            0.0000000000
      9226      3076  TIP3      OH2            12.6568694676       22.5210151950       -8.3434599678  W2        3076            0.0000000000
      9227      3076  TIP3      H1             13.3032994676       22.1923351950       -7.7186999678  W2        3076            0.0000000000
      9228      3076  TIP3      H2             13.1668094676       23.0389151950       -8.9663199678  W2        3076            0.0000000000
      9229      3077  TIP3      OH2             1.5547494676       24.7870351950       -5.9821499678  W2        3077            0.0000000000
      9230      3077  TIP3      H1              2.2084094676       24.2372051950       -5.5501399678  W2        3077            0.0000000000
      9231      3077  TIP3      H2              1.5786794676       24.5129351950       -6.8989499678  W2        3077            0.0000000000
      9232      3078  TIP3      OH2             6.7111994676       26.3371651950       -6.7669999678  W2        3078            0.0000000000
      9233      3078  TIP3      H1              7.3272994676       25.8107051950       -6.2575999678  W2        3078            0.0000000000
      9234      3078  TIP3      H2              6.1250794676       25.6970351950       -7.1706399678  W2        3078            0.0000000000
      9235      3079  TIP3      OH2            17.6935094676       22.9740251950       -1.2476499678  W2        3079            0.0000000000
      9236      3079  TIP3      H1             17.0049694676       23.6320951950       -1.3429899678  W2        3079            0.0000000000
      9237      3079  TIP3      H2             17.7089694676       22.7768151950       -0.3111099678  W2        3079            0.0000000000
      9238      3080  TIP3      OH2             3.7447894676       21.3082951950       -2.6702099678  W2        3080            0.0000000000
      9239      3080  TIP3      H1              3.5259594676       21.8383551950       -3.4366099678  W2        3080            0.0000000000
      9240      3080  TIP3      H2              3.0768794676       21.5348451950       -2.0230699678  W2        3080            0.0000000000
      9241      3081  TIP3      OH2            11.1137694676       30.8084051950       -9.1262999678  W2        3081            0.0000000000
      9242      3081  TIP3      H1             10.8182794676       30.4856351950       -9.9776099678  W2        3081            0.0000000000
      9243      3081  TIP3      H2             10.7895494676       31.7080751950       -9.0850399678  W2        3081            0.0000000000
      9244      3082  TIP3      OH2             6.3139294676       28.9838651950       -2.3828399678  W2        3082            0.0000000000
      9245      3082  TIP3      H1              5.5738394676       29.5820151950       -2.2793199678  W2        3082            0.0000000000
      9246      3082  TIP3      H2              7.0278794676       29.5378251950       -2.6984799678  W2        3082            0.0000000000
      9247      3083  TIP3      OH2            14.4207094676       21.8119451950       -6.3628699678  W2        3083            0.0000000000
      9248      3083  TIP3      H1             14.2055094676       21.0462851950       -5.8302699678  W2        3083            0.0000000000
      9249      3083  TIP3      H2             15.0764494676       22.2844051950       -5.8500199678  W2        3083            0.0000000000
      9250      3084  TIP3      OH2             3.3385194676       23.2004751950       -4.7179899678  W2        3084            0.0000000000
      9251      3084  TIP3      H1              3.9521494676       23.8332351950       -4.3447499678  W2        3084            0.0000000000
      9252      3084  TIP3      H2              3.8505894676       22.7279751950       -5.3742999678  W2        3084            0.0000000000
      9253      3085  TIP3      OH2             4.7213594676       30.9481651950       -1.5956899678  W2        3085            0.0000000000
      9254      3085  TIP3      H1              4.7161194676       31.8275151950       -1.9737599678  W2        3085            0.0000000000
      9255      3085  TIP3      H2              3.8677694676       30.8645751950       -1.1706999678  W2        3085            0.0000000000
      9256      3086  TIP3      OH2             0.8424494676       30.6189551950      -10.8137599678  W2        3086            0.0000000000
      9257      3086  TIP3      H1              0.5705394676       30.8480551950      -11.7024699678  W2        3086            0.0000000000
      9258      3086  TIP3      H2              0.8880194676       31.4568351950      -10.3532299678  W2        3086            0.0000000000
      9259      3087  TIP3      OH2            14.4674194676       32.2405451950       -4.1009099678  W2        3087            0.0000000000
      9260      3087  TIP3      H1             13.5257894676       32.2989351950       -3.9392199678  W2        3087            0.0000000000
      9261      3087  TIP3      H2             14.7440294676       33.1465951950       -4.2379399678  W2        3087            0.0000000000
      9262      3088  TIP3      OH2            14.7681194676       20.5270751950       -2.6835199678  W2        3088            0.0000000000
      9263      3088  TIP3      H1             14.0320394676       21.1377851950       -2.7213899678  W2        3088            0.0000000000
      9264      3088  TIP3      H2             15.4515194676       20.9419751950       -3.2098799678  W2        3088            0.0000000000
      9265      3089  TIP3      OH2             7.7712594676       18.6138051950       -5.2177199678  W2        3089            0.0000000000
      9266      3089  TIP3      H1              7.6536794676       17.6654051950       -5.2718899678  W2        3089            0.0000000000
      9267      3089  TIP3      H2              6.9162694676       18.9464151950       -4.9446099678  W2        3089            0.0000000000
      9268      3090  TIP3      OH2            12.7195394676       34.0218951950       -7.4757499678  W2        3090            0.0000000000
      9269      3090  TIP3      H1             13.1447694676       33.3146851950       -7.9607899678  W2        3090            0.0000000000
      9270      3090  TIP3      H2             13.0365394676       34.8231651950       -7.8925299678  W2        3090            0.0000000000
      9271      3091  TIP3      OH2            13.8791894676       31.9227451950       -8.9670899678  W2        3091            0.0000000000
      9272      3091  TIP3      H1             13.6216694676       31.2327551950       -9.5784999678  W2        3091            0.0000000000
      9273      3091  TIP3      H2             13.9502694676       31.4798651950       -8.1214999678  W2        3091            0.0000000000
      9274      3092  TIP3      OH2            15.5652094676       30.4894151950       -0.4897399678  W2        3092            0.0000000000
      9275      3092  TIP3      H1             15.7048394676       29.8976651950       -1.2290399678  W2        3092            0.0000000000
      9276      3092  TIP3      H2             15.7324894676       31.3620051950       -0.8458599678  W2        3092            0.0000000000
      9277      3093  TIP3      OH2            10.0377494676       27.4513651950      -10.7171399678  W2        3093            0.0000000000
      9278      3093  TIP3      H1              9.3262994676       27.9863351950      -11.0690899678  W2        3093            0.0000000000
      9279      3093  TIP3      H2             10.7287094676       27.5065751950      -11.3772499678  W2        3093            0.0000000000
      9280      3094  TIP3      OH2            10.0916694676       25.9087951950      -13.6786399678  W2        3094            0.0000000000
      9281      3094  TIP3      H1             10.7926594676       25.9314851950      -13.0272399678  W2        3094            0.0000000000
      9282      3094  TIP3      H2             10.3939594676       25.2807651950      -14.3347099678  W2        3094            0.0000000000
      9283      3095  TIP3      OH2            17.4071394676       26.8292151950       -2.4236999678  W2        3095            0.0000000000
      9284      3095  TIP3      H1             16.7545494676       27.5237751950       -2.3346099678  W2        3095            0.0000000000
      9285      3095  TIP3      H2             17.8721694676       27.0393051950       -3.2335399678  W2        3095            0.0000000000
      9286      3096  TIP3      OH2            13.4435194676       27.6606951950       -9.7655499678  W2        3096            0.0000000000
      9287      3096  TIP3      H1             12.7116194676       27.8890651950       -9.1924899678  W2        3096            0.0000000000
      9288      3096  TIP3      H2             13.8907394676       26.9469651950       -9.3107999678  W2        3096            0.0000000000
      9289      3097  TIP3      OH2            13.3408694676       25.8349551950       -0.6978499678  W2        3097            0.0000000000
      9290      3097  TIP3      H1             13.4207794676       26.5983951950       -0.1259999678  W2        3097            0.0000000000
      9291      3097  TIP3      H2             12.7396394676       26.1141951950       -1.3883399678  W2        3097            0.0000000000
      9292      3098  TIP3      OH2             5.0888894676       28.2913151950       -7.8830499678  W2        3098            0.0000000000
      9293      3098  TIP3      H1              4.7584094676       27.9206551950       -8.7013499678  W2        3098            0.0000000000
      9294      3098  TIP3      H2              5.6772994676       27.6207151950       -7.5362199678  W2        3098            0.0000000000
      9295      3099  TIP3      OH2             6.4556394676       31.7193751950       -5.2018299678  W2        3099            0.0000000000
      9296      3099  TIP3      H1              6.3607694676       31.1406851950       -5.9583699678  W2        3099            0.0000000000
      9297      3099  TIP3      H2              7.1849994676       31.3479451950       -4.7055499678  W2        3099            0.0000000000
      9298      3100  TIP3      OH2             5.4554394676       27.0598751950       -4.2495499678  W2        3100            0.0000000000
      9299      3100  TIP3      H1              6.0206894676       27.1812951950       -5.0124299678  W2        3100            0.0000000000
      9300      3100  TIP3      H2              5.7743294676       27.6973751950       -3.6106999678  W2        3100            0.0000000000
      9301      3101  TIP3      OH2            11.7646594676       32.5630651950       -3.5154999678  W2        3101            0.0000000000
      9302      3101  TIP3      H1             11.5243194676       33.2253751950       -2.8675799678  W2        3101            0.0000000000
      9303      3101  TIP3      H2             11.5664794676       31.7285851950       -3.0905399678  W2        3101            0.0000000000
      9304      3102  TIP3      OH2             6.3355094676       31.4591451950        0.4676400322  W2        3102            0.0000000000
      9305      3102  TIP3      H1              6.0242594676       32.2414651950        0.9229600322  W2        3102            0.0000000000
      9306      3102  TIP3      H2              5.6855294676       31.3060551950       -0.2181599678  W2        3102            0.0000000000
      9307      3103  TIP3      OH2            12.3144694676       26.8229851950      -12.0804299678  W2        3103            0.0000000000
      9308      3103  TIP3      H1             12.8940194676       26.9730151950      -11.3335399678  W2        3103            0.0000000000
      9309      3103  TIP3      H2             12.7284694676       27.2937251950      -12.8037899678  W2        3103            0.0000000000
      9310      3104  TIP3      OH2             3.2554994676       27.6572551950       -0.3037899678  W2        3104            0.0000000000
      9311      3104  TIP3      H1              3.3258194676       28.3079351950        0.3947100322  W2        3104            0.0000000000
      9312      3104  TIP3      H2              2.3647194676       27.7600051950       -0.6386999678  W2        3104            0.0000000000
      9313      3105  TIP3      OH2            10.0409594676       33.5598351950       -8.6451199678  W2        3105            0.0000000000
      9314      3105  TIP3      H1             10.5147194676       33.8554651950       -7.8676999678  W2        3105            0.0000000000
      9315      3105  TIP3      H2              9.4778894676       34.2979951950       -8.8781599678  W2        3105            0.0000000000
      9316      3106  TIP3      OH2             4.5750994676       33.5306451950        1.2310200322  W2        3106            0.0000000000
      9317      3106  TIP3      H1              4.5826294676       33.3946151950        0.2835700322  W2        3106            0.0000000000
      9318      3106  TIP3      H2              3.6591394676       33.4134551950        1.4830200322  W2        3106            0.0000000000
      9319      3107  TIP3      OH2            16.0133094676       18.5730251950      -12.2674599678  W2        3107            0.0000000000
      9320      3107  TIP3      H1             15.1133794676       18.7119251950      -11.9723999678  W2        3107            0.0000000000
      9321      3107  TIP3      H2             16.2651494676       19.4044851950      -12.6692899678  W2        3107            0.0000000000
      9322      3108  TIP3      OH2             4.0791594676       27.3607451950      -10.2937699678  W2        3108            0.0000000000
      9323      3108  TIP3      H1              3.7872894676       28.1289151950      -10.7846399678  W2        3108            0.0000000000
      9324      3108  TIP3      H2              3.4046794676       26.7013651950      -10.4566299678  W2        3108            0.0000000000
      9325      3109  TIP3      OH2            17.2024494676       32.9392651950      -13.8910699678  W2        3109            0.0000000000
      9326      3109  TIP3      H1             17.2757994676       33.8782851950      -13.7205399678  W2        3109            0.0000000000
      9327      3109  TIP3      H2             18.1079594676       32.6341251950      -13.9473399678  W2        3109            0.0000000000
      9328      3110  TIP3      OH2             0.1721694676       29.7236651950       -1.4787899678  W2        3110            0.0000000000
      9329      3110  TIP3      H1             -0.3289905324       29.6956051950       -2.2938199678  W2        3110            0.0000000000
      9330      3110  TIP3      H2              0.1775394676       28.8179851950       -1.1690599678  W2        3110            0.0000000000
      9331      3111  TIP3      OH2            -0.0775605324       32.5040451950       -4.5947699678  W2        3111            0.0000000000
      9332      3111  TIP3      H1              0.8684994676       32.3597451950       -4.6138199678  W2        3111            0.0000000000
      9333      3111  TIP3      H2             -0.1899305324       33.2883251950       -4.0576499678  W2        3111            0.0000000000
      9334      3112  TIP3      OH2            18.1202894676       33.1700151950        1.0876000322  W2        3112            0.0000000000
      9335      3112  TIP3      H1             18.0709694676       32.2148251950        1.0503600322  W2        3112            0.0000000000
      9336      3112  TIP3      H2             17.2935194676       33.4375451950        1.4889800322  W2        3112            0.0000000000
      9337      3113  TIP3      OH2             9.0986894676       32.7439351950       -0.0362599678  W2        3113            0.0000000000
      9338      3113  TIP3      H1              9.1861494676       33.5703951950        0.4386500322  W2        3113            0.0000000000
      9339      3113  TIP3      H2              8.2351994676       32.4143151950        0.2126700322  W2        3113            0.0000000000
      9340      3114  TIP3      OH2             9.5132694676       36.5163051950      -10.2301999678  W2        3114            0.0000000000
      9341      3114  TIP3      H1              9.4378694676       36.3950251950      -11.1766799678  W2        3114            0.0000000000
      9342      3114  TIP3      H2              9.5461394676       37.4655751950      -10.1117399678  W2        3114            0.0000000000
      9343      3115  TIP3      OH2             3.1666494676       35.3050051950       -8.4492999678  W2        3115            0.0000000000
      9344      3115  TIP3      H1              3.3186894676       34.9570451950       -7.5706499678  W2        3115            0.0000000000
      9345      3115  TIP3      H2              2.3156894676       34.9487351950       -8.7045799678  W2        3115            0.0000000000
      9346      3116  TIP3      OH2            12.6148694676       35.6703251950      -13.2279599678  W2        3116            0.0000000000
      9347      3116  TIP3      H1             12.9897094676       34.9259351950      -13.6986999678  W2        3116            0.0000000000
      9348      3116  TIP3      H2             12.6192394676       35.4003851950      -12.3096299678  W2        3116            0.0000000000
      9349      3117  TIP3      OH2            12.2836794676       35.5960351950      -10.4787399678  W2        3117            0.0000000000
      9350      3117  TIP3      H1             11.3486594676       35.6962251950      -10.3000399678  W2        3117            0.0000000000
      9351      3117  TIP3      H2             12.5638694676       34.8866351950       -9.9004199678  W2        3117            0.0000000000
      9352      3118  TIP3      OH2            15.2722694676       24.6632651950        1.5678200322  W2        3118            0.0000000000
      9353      3118  TIP3      H1             14.8649494676       25.1438251950        0.8471500322  W2        3118            0.0000000000
      9354      3118  TIP3      H2             15.3128394676       23.7578651950        1.2599000322  W2        3118            0.0000000000
      9355      3119  TIP3      OH2             2.4212194676       31.0472051950       -0.4355099678  W2        3119            0.0000000000
      9356      3119  TIP3      H1              2.6373494676       30.6857651950        0.4240700322  W2        3119            0.0000000000
      9357      3119  TIP3      H2              1.5656894676       30.6725851950       -0.6451599678  W2        3119            0.0000000000
      9358      3120  TIP3      OH2             5.0400194676       19.5172551950       -4.4400899678  W2        3120            0.0000000000
      9359      3120  TIP3      H1              4.1783894676       19.4300751950       -4.8477999678  W2        3120            0.0000000000
      9360      3120  TIP3      H2              5.0175894676       20.3732651950       -4.0123299678  W2        3120            0.0000000000
      9361      3121  TIP3      OH2             9.7027994676       19.2392951950       -1.0653899678  W2        3121            0.0000000000
      9362      3121  TIP3      H1             10.1231094676       18.8240051950       -0.3123299678  W2        3121            0.0000000000
      9363      3121  TIP3      H2              8.7697594676       19.0606251950       -0.9481899678  W2        3121            0.0000000000
      9364      3122  TIP3      OH2            13.0292894676       22.9948151950       -0.2119399678  W2        3122            0.0000000000
      9365      3122  TIP3      H1             12.5152394676       22.8690351950        0.5856600322  W2        3122            0.0000000000
      9366      3122  TIP3      H2             12.8737594676       23.9071251950       -0.4563199678  W2        3122            0.0000000000
      9367      3123  TIP3      OH2            13.7917794676       27.8558151950      -14.4506399678  W2        3123            0.0000000000
      9368      3123  TIP3      H1             13.8338594676       27.6332051950      -15.3806399678  W2        3123            0.0000000000
      9369      3123  TIP3      H2             14.6409894676       28.2545251950      -14.2606499678  W2        3123            0.0000000000
      9370      3124  TIP3      OH2             9.3645294676       21.7316351950      -13.7803099678  W2        3124            0.0000000000
      9371      3124  TIP3      H1              9.1110094676       21.7507951950      -12.8574999678  W2        3124            0.0000000000
      9372      3124  TIP3      H2              9.1077394676       20.8601751950      -14.0816899678  W2        3124            0.0000000000
      9373      3125  TIP3      OH2             5.1310294676       24.4827051950       -3.3450699678  W2        3125            0.0000000000
      9374      3125  TIP3      H1              4.4892394676       24.4424351950       -2.6360599678  W2        3125            0.0000000000
      9375      3125  TIP3      H2              5.1682294676       25.4091751950       -3.5827699678  W2        3125            0.0000000000
      9376      3126  TIP3      OH2             5.1279394676       24.7037151950       -8.4330699678  W2        3126            0.0000000000
      9377      3126  TIP3      H1              4.2352294676       24.3633251950       -8.4916899678  W2        3126            0.0000000000
      9378      3126  TIP3      H2              5.5785994676       24.3268051950       -9.1887499678  W2        3126            0.0000000000
      9379      3127  TIP3      OH2            10.6634894676       25.1197451950       -9.6159899678  W2        3127            0.0000000000
      9380      3127  TIP3      H1             10.2545194676       25.9346051950       -9.9075099678  W2        3127            0.0000000000
      9381      3127  TIP3      H2             11.3841094676       24.9797551950      -10.2302799678  W2        3127            0.0000000000
      9382      3128  TIP3      OH2             9.7656494676       25.2953851950        1.8720800322  W2        3128            0.0000000000
      9383      3128  TIP3      H1              9.2030294676       24.5905451950        2.1928600322  W2        3128            0.0000000000
      9384      3128  TIP3      H2             10.5919894676       25.1745751950        2.3398400322  W2        3128            0.0000000000
      9385      3129  TIP3      OH2            11.6682594676       24.5657851950       -6.8020199678  W2        3129            0.0000000000
      9386      3129  TIP3      H1             11.4727094676       25.1714651950       -7.5169599678  W2        3129            0.0000000000
      9387      3129  TIP3      H2             11.8495194676       23.7323051950       -7.2363899678  W2        3129            0.0000000000
      9388      3130  TIP3      OH2             2.8810794676       24.8030551950       -1.4778699678  W2        3130            0.0000000000
      9389      3130  TIP3      H1              2.8430194676       25.2032151950       -0.6091599678  W2        3130            0.0000000000
      9390      3130  TIP3      H2              2.3901894676       23.9862951950       -1.3875799678  W2        3130            0.0000000000
      9391      3131  TIP3      OH2             6.2468194676       22.1772851950      -14.6792699678  W2        3131            0.0000000000
      9392      3131  TIP3      H1              5.8158894676       21.7322951950      -13.9495299678  W2        3131            0.0000000000
      9393      3131  TIP3      H2              5.5286894676       22.5489151950      -15.1915199678  W2        3131            0.0000000000
      9394      3132  TIP3      OH2            -0.5108405324       21.9192351950       -7.6273999678  W2        3132            0.0000000000
      9395      3132  TIP3      H1              0.1199294676       21.8904451950       -6.9080099678  W2        3132            0.0000000000
      9396      3132  TIP3      H2             -0.0614105324       21.4941051950       -8.3578099678  W2        3132            0.0000000000
      9397      3133  TIP3      OH2             0.7633694676       22.6654351950      -12.2033599678  W2        3133            0.0000000000
      9398      3133  TIP3      H1              1.2375394676       23.2564251950      -12.7882699678  W2        3133            0.0000000000
      9399      3133  TIP3      H2              0.0460094676       23.1957251950      -11.8563499678  W2        3133            0.0000000000
      9400      3134  TIP3      OH2            10.9321794676       26.2039151950       -2.1307799678  W2        3134            0.0000000000
      9401      3134  TIP3      H1             11.2556594676       25.5728851950       -2.7737299678  W2        3134            0.0000000000
      9402      3134  TIP3      H2             10.4921094676       25.6691351950       -1.4700399678  W2        3134            0.0000000000
      9403      3135  TIP3      OH2             7.7094694676       22.1314651950       -7.3466599678  W2        3135            0.0000000000
      9404      3135  TIP3      H1              6.7985794676       22.1881451950       -7.0580599678  W2        3135            0.0000000000
      9405      3135  TIP3      H2              8.2147594676       22.0710151950       -6.5359399678  W2        3135            0.0000000000
      9406      3136  TIP3      OH2             2.5378094676       23.7600951950       -8.5198999678  W2        3136            0.0000000000
      9407      3136  TIP3      H1              1.6486094676       23.8596451950       -8.8599399678  W2        3136            0.0000000000
      9408      3136  TIP3      H2              2.8342994676       22.9183951950       -8.8661099678  W2        3136            0.0000000000
      9409      3137  TIP3      OH2             6.1909894676       23.7603551950      -10.8634399678  W2        3137            0.0000000000
      9410      3137  TIP3      H1              7.1225394676       23.8893551950      -10.6851299678  W2        3137            0.0000000000
      9411      3137  TIP3      H2              5.9760194676       24.4297851950      -11.5129699678  W2        3137            0.0000000000
      9412      3138  TIP3      OH2            12.1146594676       21.3660951950       -4.0824799678  W2        3138            0.0000000000
      9413      3138  TIP3      H1             11.4378194676       21.4974051950       -3.4185099678  W2        3138            0.0000000000
      9414      3138  TIP3      H2             11.6291494676       21.2110451950       -4.8927099678  W2        3138            0.0000000000
      9415      3139  TIP3      OH2             4.8650094676       24.9545751950      -13.2968299678  W2        3139            0.0000000000
      9416      3139  TIP3      H1              4.3225194676       24.5749551950      -13.9880699678  W2        3139            0.0000000000
      9417      3139  TIP3      H2              5.6984994676       25.1490451950      -13.7254199678  W2        3139            0.0000000000
      9418      3140  TIP3      OH2            15.4021694676       37.0376351950        2.1942800322  W2        3140            0.0000000000
      9419      3140  TIP3      H1             15.6020394676       37.4618251950        1.3598100322  W2        3140            0.0000000000
      9420      3140  TIP3      H2             16.0575394676       37.3814551950        2.8013200322  W2        3140            0.0000000000
      9421      3141  TIP3      OH2             3.0001494676       29.5117651950        1.8023300322  W2        3141            0.0000000000
      9422      3141  TIP3      H1              3.7323894676       29.7663551950        2.3637800322  W2        3141            0.0000000000
      9423      3141  TIP3      H2              2.2200194676       29.7163051950        2.3178700322  W2        3141            0.0000000000
      9424      3142  TIP3      OH2             9.0294394676       24.9187651950       -5.4596999678  W2        3142            0.0000000000
      9425      3142  TIP3      H1              9.5937794676       24.3724251950       -6.0067399678  W2        3142            0.0000000000
      9426      3142  TIP3      H2              8.8817794676       24.3969551950       -4.6709399678  W2        3142            0.0000000000
      9427      3143  TIP3      OH2             4.0314094676       21.0553751950       -9.0412199678  W2        3143            0.0000000000
      9428      3143  TIP3      H1              3.7143594676       20.1529051950       -9.0766799678  W2        3143            0.0000000000
      9429      3143  TIP3      H2              4.8128194676       21.0571151950       -9.5940599678  W2        3143            0.0000000000
      9430      3144  TIP3      OH2             7.6560294676       23.3073751950       -3.0456599678  W2        3144            0.0000000000
      9431      3144  TIP3      H1              6.8205594676       23.7613251950       -2.9354199678  W2        3144            0.0000000000
      9432      3144  TIP3      H2              8.1800894676       23.5832251950       -2.2936699678  W2        3144            0.0000000000
      9433      3145  TIP3      OH2             8.2002894676       29.5201451950      -11.3610199678  W2        3145            0.0000000000
      9434      3145  TIP3      H1              7.4553894676       29.0126751950      -11.6832299678  W2        3145            0.0000000000
      9435      3145  TIP3      H2              8.0660094676       29.5689451950      -10.4145399678  W2        3145            0.0000000000
      9436      3146  TIP3      OH2            15.3501794676       28.6529651950       -2.5742599678  W2        3146            0.0000000000
      9437      3146  TIP3      H1             15.9920594676       29.1095951950       -3.1180399678  W2        3146            0.0000000000
      9438      3146  TIP3      H2             14.5198694676       28.7662051950       -3.0368499678  W2        3146            0.0000000000
      9439      3147  TIP3      OH2            12.0979694676       22.3341351950      -13.1617599678  W2        3147            0.0000000000
      9440      3147  TIP3      H1             11.1593894676       22.4456951950      -13.3128799678  W2        3147            0.0000000000
      9441      3147  TIP3      H2             12.3951794676       23.1908251950      -12.8551899678  W2        3147            0.0000000000
      9442      3148  TIP3      OH2             9.7194994676       29.7044751950       -0.1241099678  W2        3148            0.0000000000
      9443      3148  TIP3      H1              9.3741094676       29.3227151950        0.6828500322  W2        3148            0.0000000000
      9444      3148  TIP3      H2              9.5195094676       30.6378351950       -0.0528199678  W2        3148            0.0000000000
      9445      3149  TIP3      OH2            12.8163194676       24.2014051950      -11.5010199678  W2        3149            0.0000000000
      9446      3149  TIP3      H1             13.7082194676       24.0639051950      -11.1818999678  W2        3149            0.0000000000
      9447      3149  TIP3      H2             12.8726794676       24.9920151950      -12.0376699678  W2        3149            0.0000000000
      9448      3150  TIP3      OH2             3.3251194676       28.8151451950       -5.5912299678  W2        3150            0.0000000000
      9449      3150  TIP3      H1              4.0698394676       28.8127151950       -6.1925799678  W2        3150            0.0000000000
      9450      3150  TIP3      H2              3.4027794676       27.9915251950       -5.1097199678  W2        3150            0.0000000000
      9451      3151  TIP3      OH2            10.3256994676       30.9785751950      -12.3355599678  W2        3151            0.0000000000
      9452      3151  TIP3      H1             10.0305394676       31.8053651950      -11.9540799678  W2        3151            0.0000000000
      9453      3151  TIP3      H2              9.6226994676       30.3592651950      -12.1394199678  W2        3151            0.0000000000
      9454      3152  TIP3      OH2             0.3330894676       27.2758351950       -0.2763799678  W2        3152            0.0000000000
      9455      3152  TIP3      H1              0.5559494676       26.8577951950        0.5553700322  W2        3152            0.0000000000
      9456      3152  TIP3      H2             -0.2689005324       26.6633351950       -0.6990999678  W2        3152            0.0000000000
      9457      3153  TIP3      OH2             7.3495794676       26.7928251950        1.9365900322  W2        3153            0.0000000000
      9458      3153  TIP3      H1              7.0536594676       26.6271251950        1.0415000322  W2        3153            0.0000000000
      9459      3153  TIP3      H2              8.2810994676       26.5728551950        1.9259800322  W2        3153            0.0000000000
      9460      3154  TIP3      OH2            11.9698594676       32.1660251950       -0.1736099678  W2        3154            0.0000000000
      9461      3154  TIP3      H1             11.0692894676       32.3492851950       -0.4412199678  W2        3154            0.0000000000
      9462      3154  TIP3      H2             12.0039694676       32.4249551950        0.7472700322  W2        3154            0.0000000000
      9463      3155  TIP3      OH2            17.7011894676       24.4108151950      -11.8063499678  W2        3155            0.0000000000
      9464      3155  TIP3      H1             17.1468194676       24.0146151950      -12.4785999678  W2        3155            0.0000000000
      9465      3155  TIP3      H2             17.8015494676       25.3213351950      -12.0840199678  W2        3155            0.0000000000
      9466      3156  TIP3      OH2            17.6643894676       30.2109851950        1.0308000322  W2        3156            0.0000000000
      9467      3156  TIP3      H1             16.8132394676       30.4493651950        0.6634400322  W2        3156            0.0000000000
      9468      3156  TIP3      H2             18.2547294676       30.1943051950        0.2775100322  W2        3156            0.0000000000
      9469      3157  TIP3      OH2            15.9963594676       33.1968551950      -11.3411399678  W2        3157            0.0000000000
      9470      3157  TIP3      H1             15.6234694676       32.3712351950      -11.0320799678  W2        3157            0.0000000000
      9471      3157  TIP3      H2             16.2737094676       33.0137951950      -12.2387999678  W2        3157            0.0000000000
      9472      3158  TIP3      OH2            13.1567494676       28.0048051950       -4.3199499678  W2        3158            0.0000000000
      9473      3158  TIP3      H1             12.2284394676       27.7729951950       -4.3470199678  W2        3158            0.0000000000
      9474      3158  TIP3      H2             13.6078594676       27.2277851950       -4.6500699678  W2        3158            0.0000000000
      9475      3159  TIP3      OH2             5.7000594676       32.3329651950       -8.1870799678  W2        3159            0.0000000000
      9476      3159  TIP3      H1              6.2272794676       33.1064051950       -8.3871999678  W2        3159            0.0000000000
      9477      3159  TIP3      H2              4.8199094676       32.5578851950       -8.4886799678  W2        3159            0.0000000000
      9478      3160  TIP3      OH2             1.4548294676       27.1953751950      -13.5998399678  W2        3160            0.0000000000
      9479      3160  TIP3      H1              2.0708194676       27.8220951950      -13.2203599678  W2        3160            0.0000000000
      9480      3160  TIP3      H2              0.5930894676       27.5113551950      -13.3281899678  W2        3160            0.0000000000
      9481      3161  TIP3      OH2             7.1272894676       29.9959551950       -8.6106499678  W2        3161            0.0000000000
      9482      3161  TIP3      H1              6.8862894676       30.9213951950       -8.5691199678  W2        3161            0.0000000000
      9483      3161  TIP3      H2              6.3866494676       29.5370851950       -8.2142599678  W2        3161            0.0000000000
      9484      3162  TIP3      OH2             7.6419494676       34.1453151950       -2.2955399678  W2        3162            0.0000000000
      9485      3162  TIP3      H1              8.0044194676       34.9998751950       -2.5290999678  W2        3162            0.0000000000
      9486      3162  TIP3      H2              8.1734694676       33.8534751950       -1.5549099678  W2        3162            0.0000000000
      9487      3163  TIP3      OH2             5.8103694676       35.0177151950       -9.0654299678  W2        3163            0.0000000000
      9488      3163  TIP3      H1              4.8604194676       35.1234551950       -9.0140999678  W2        3163            0.0000000000
      9489      3163  TIP3      H2              6.1621794676       35.8384551950       -8.7206799678  W2        3163            0.0000000000
      9490      3164  TIP3      OH2            11.1860294676       30.2443851950       -2.5949799678  W2        3164            0.0000000000
      9491      3164  TIP3      H1             10.7601594676       30.0165551950       -1.7685799678  W2        3164            0.0000000000
      9492      3164  TIP3      H2             11.7666094676       29.5055651950       -2.7774499678  W2        3164            0.0000000000
      9493      3165  TIP3      OH2            13.3889194676       31.1734351950      -13.5210799678  W2        3165            0.0000000000
      9494      3165  TIP3      H1             13.7422294676       30.7934151950      -12.7167299678  W2        3165            0.0000000000
      9495      3165  TIP3      H2             12.4402694676       31.0799151950      -13.4341499678  W2        3165            0.0000000000
      9496      3166  TIP3      OH2            13.8444494676       34.7963351950       -0.1254999678  W2        3166            0.0000000000
      9497      3166  TIP3      H1             13.2427694676       34.2406251950       -0.6208699678  W2        3166            0.0000000000
      9498      3166  TIP3      H2             14.1258194676       35.4633151950       -0.7517599678  W2        3166            0.0000000000
      9499      3167  TIP3      OH2            17.8923594676       35.6526851950      -13.3200599678  W2        3167            0.0000000000
      9500      3167  TIP3      H1             18.6361494676       36.2387351950      -13.4598999678  W2        3167            0.0000000000
      9501      3167  TIP3      H2             17.1981694676       36.2212651950      -12.9868199678  W2        3167            0.0000000000
      9502      3168  TIP3      OH2             1.9670394676       22.0291051950       -0.7182399678  W2        3168            0.0000000000
      9503      3168  TIP3      H1              1.0742694676       22.3676451950       -0.7858399678  W2        3168            0.0000000000
      9504      3168  TIP3      H2              1.8683194676       21.1737151950       -0.3001599678  W2        3168            0.0000000000
      9505      3169  TIP3      OH2            14.2548494676       29.8456351950      -11.2942899678  W2        3169            0.0000000000
      9506      3169  TIP3      H1             13.9776094676       29.1175651950      -10.7381799678  W2        3169            0.0000000000
      9507      3169  TIP3      H2             15.1821494676       29.9648351950      -11.0890299678  W2        3169            0.0000000000
      9508      3170  TIP3      OH2             1.6182394676       33.8335451950       -2.2832999678  W2        3170            0.0000000000
      9509      3170  TIP3      H1              1.8352694676       32.9017851950       -2.3143299678  W2        3170            0.0000000000
      9510      3170  TIP3      H2              1.8645894676       34.1080451950       -1.4000199678  W2        3170            0.0000000000
      9511      3171  TIP3      OH2             7.4796994676       32.2850451950      -15.0740799678  W2        3171            0.0000000000
      9512      3171  TIP3      H1              7.7186794676       31.5368551950      -15.6211899678  W2        3171            0.0000000000
      9513      3171  TIP3      H2              7.2108294676       31.8972151950      -14.2412999678  W2        3171            0.0000000000
      9514      3172  TIP3      OH2             6.4167594676       31.8554251950      -12.6178199678  W2        3172            0.0000000000
      9515      3172  TIP3      H1              6.5635594676       31.3354051950      -11.8277299678  W2        3172            0.0000000000
      9516      3172  TIP3      H2              6.4139294676       32.7621851950      -12.3112299678  W2        3172            0.0000000000
      9517      3173  TIP3      OH2             2.8698694676       29.1077551950      -12.1072799678  W2        3173            0.0000000000
      9518      3173  TIP3      H1              2.1837994676       29.4600051950      -11.5403099678  W2        3173            0.0000000000
      9519      3173  TIP3      H2              3.3926594676       29.8707151950      -12.3538499678  W2        3173            0.0000000000
      9520      3174  TIP3      OH2            10.7013794676       21.7701351950       -1.8283799678  W2        3174            0.0000000000
      9521      3174  TIP3      H1             11.4001694676       21.8440051950       -1.1784099678  W2        3174            0.0000000000
      9522      3174  TIP3      H2             10.3205194676       20.9056351950       -1.6740899678  W2        3174            0.0000000000
      9523      3175  TIP3      OH2            11.4858694676       21.4223051950      -10.7311499678  W2        3175            0.0000000000
      9524      3175  TIP3      H1             11.7056994676       21.8938451950      -11.5346099678  W2        3175            0.0000000000
      9525      3175  TIP3      H2             12.0442694676       21.8165651950      -10.0610899678  W2        3175            0.0000000000
      9526      3176  TIP3      OH2             9.1544794676       33.5527851950      -11.8683999678  W2        3176            0.0000000000
      9527      3176  TIP3      H1              8.3380894676       34.0497551950      -11.8159699678  W2        3176            0.0000000000
      9528      3176  TIP3      H2              9.6841094676       34.0281351950      -12.5085199678  W2        3176            0.0000000000
      9529      3177  TIP3      OH2             8.6858594676       23.1501851950       -9.8963099678  W2        3177            0.0000000000
      9530      3177  TIP3      H1              9.4981194676       23.6545051950       -9.8501399678  W2        3177            0.0000000000
      9531      3177  TIP3      H2              8.4411594676       23.0051551950       -8.9823499678  W2        3177            0.0000000000
      9532      3178  TIP3      OH2             9.2214994676       24.1364551950       -0.7116499678  W2        3178            0.0000000000
      9533      3178  TIP3      H1              9.3405294676       24.7099951950        0.0453900322  W2        3178            0.0000000000
      9534      3178  TIP3      H2              9.8769594676       23.4483951950       -0.5968699678  W2        3178            0.0000000000
      9535      3179  TIP3      OH2             9.5695294676       20.2314851950       -8.9581999678  W2        3179            0.0000000000
      9536      3179  TIP3      H1              9.2228794676       20.8485451950       -8.3137699678  W2        3179            0.0000000000
      9537      3179  TIP3      H2             10.2282194676       20.7320551950       -9.4396499678  W2        3179            0.0000000000
      9538      3180  TIP3      OH2             6.4927894676       34.5965051950      -11.8867099678  W2        3180            0.0000000000
      9539      3180  TIP3      H1              6.6536594676       35.3962551950      -12.3874499678  W2        3180            0.0000000000
      9540      3180  TIP3      H2              6.2955694676       34.9031051950      -11.0016499678  W2        3180            0.0000000000
      9541      3181  TIP3      OH2             5.2272294676       21.2944251950      -12.2709499678  W2        3181            0.0000000000
      9542      3181  TIP3      H1              5.1437094676       22.1827351950      -11.9243099678  W2        3181            0.0000000000
      9543      3181  TIP3      H2              6.1172594676       21.0290951950      -12.0392699678  W2        3181            0.0000000000
      9544      3182  TIP3      OH2            15.4260794676       22.0434851950        0.1233200322  W2        3182            0.0000000000
      9545      3182  TIP3      H1             14.5096594676       22.3056551950        0.0356900322  W2        3182            0.0000000000
      9546      3182  TIP3      H2             15.7615794676       22.0403851950       -0.7731499678  W2        3182            0.0000000000
      9547      3183  TIP3      OH2            14.0281794676       25.7935851950       -5.7809499678  W2        3183            0.0000000000
      9548      3183  TIP3      H1             13.2306194676       25.3786051950       -6.1094499678  W2        3183            0.0000000000
      9549      3183  TIP3      H2             14.4732894676       25.1029551950       -5.2898999678  W2        3183            0.0000000000
      9550      3184  TIP3      OH2             3.4857594676       31.7216451950      -13.2104999678  W2        3184            0.0000000000
      9551      3184  TIP3      H1              4.0779094676       32.4211251950      -12.9342599678  W2        3184            0.0000000000
      9552      3184  TIP3      H2              3.9450594676       31.2885951950      -13.9300399678  W2        3184            0.0000000000
      9553      3185  TIP3      OH2             1.8016794676       24.3859451950      -14.0945599678  W2        3185            0.0000000000
      9554      3185  TIP3      H1              1.7569394676       25.3252551950      -13.9158599678  W2        3185            0.0000000000
      9555      3185  TIP3      H2              0.9139994676       24.1504351950      -14.3643499678  W2        3185            0.0000000000
      9556      3186  TIP3      OH2            15.1146394676       35.0498351950       -4.1585999678  W2        3186            0.0000000000
      9557      3186  TIP3      H1             14.9590694676       35.7282751950       -4.8156699678  W2        3186            0.0000000000
      9558      3186  TIP3      H2             16.0472794676       35.1217651950       -3.9555399678  W2        3186            0.0000000000
      9559      3187  TIP3      OH2             2.6098794676       19.1676051950       -5.4214599678  W2        3187            0.0000000000
      9560      3187  TIP3      H1              2.3808594676       19.2268551950       -6.3489599678  W2        3187            0.0000000000
      9561      3187  TIP3      H2              2.1672194676       18.3761551950       -5.1150499678  W2        3187            0.0000000000
      9562      3188  TIP3      OH2             1.5402094676       33.1083151950       -9.2608799678  W2        3188            0.0000000000
      9563      3188  TIP3      H1              0.7080694676       33.5805851950       -9.2337399678  W2        3188            0.0000000000
      9564      3188  TIP3      H2              2.0860394676       33.6180751950       -9.8595699678  W2        3188            0.0000000000
      9565      3189  TIP3      OH2             0.8285794676       35.7206851950        2.0689200322  W2        3189            0.0000000000
      9566      3189  TIP3      H1              1.3687994676       35.5040851950        2.8288400322  W2        3189            0.0000000000
      9567      3189  TIP3      H2              0.3473794676       34.9152851950        1.8791700322  W2        3189            0.0000000000
      9568      3190  TIP3      OH2             5.4259194676       34.6401251950        3.6893400322  W2        3190            0.0000000000
      9569      3190  TIP3      H1              6.1936394676       34.1812051950        4.0302600322  W2        3190            0.0000000000
      9570      3190  TIP3      H2              5.4045394676       34.4141051950        2.7594600322  W2        3190            0.0000000000
      9571      3191  TIP3      OH2             9.5178794676       34.1481851950      -14.9354799678  W2        3191            0.0000000000
      9572      3191  TIP3      H1              8.8739794676       33.5170451950      -14.6141099678  W2        3191            0.0000000000
      9573      3191  TIP3      H2             10.2797094676       33.6169851950      -15.1671299678  W2        3191            0.0000000000
      9574      3192  TIP3      OH2            12.0027894676       33.0202351950        2.4184900322  W2        3192            0.0000000000
      9575      3192  TIP3      H1             11.6517394676       32.1635351950        2.6615300322  W2        3192            0.0000000000
      9576      3192  TIP3      H2             12.7291094676       33.1629051950        3.0253900322  W2        3192            0.0000000000
      9577      3193  TIP3      OH2            14.1221694676       33.9651751950      -14.7016799678  W2        3193            0.0000000000
      9578      3193  TIP3      H1             14.4052094676       33.1706951950      -14.2489899678  W2        3193            0.0000000000
      9579      3193  TIP3      H2             14.8619594676       34.1982751950      -15.2625699678  W2        3193            0.0000000000
      9580      3194  TIP3      OH2             0.7355294676       29.5310951950        3.0233500322  W2        3194            0.0000000000
      9581      3194  TIP3      H1              0.8795794676       28.6291651950        2.7370200322  W2        3194            0.0000000000
      9582      3194  TIP3      H2             -0.0367305324       29.8173051950        2.5355800322  W2        3194            0.0000000000
      9583      3195  TIP3      OH2             5.0768994676       29.8746651950      -14.8441899678  W2        3195            0.0000000000
      9584      3195  TIP3      H1              5.1413094676       29.0806251950      -14.3135499678  W2        3195            0.0000000000
      9585      3195  TIP3      H2              5.7298194676       29.7559451950      -15.5339899678  W2        3195            0.0000000000
      9586      3196  TIP3      OH2             7.3911394676       29.5009051950        2.4559900322  W2        3196            0.0000000000
      9587      3196  TIP3      H1              7.0625194676       29.7717151950        1.5987300322  W2        3196            0.0000000000
      9588      3196  TIP3      H2              7.5429594676       28.5598851950        2.3684900322  W2        3196            0.0000000000
      9589      3197  TIP3      OH2            10.4292394676       30.9218351950      -15.1083899678  W2        3197            0.0000000000
      9590      3197  TIP3      H1             10.1606494676       31.1020451950      -14.2074999678  W2        3197            0.0000000000
      9591      3197  TIP3      H2             10.2227994676       29.9964551950      -15.2398099678  W2        3197            0.0000000000
      9592      3198  TIP3      OH2            13.1256594676       29.4166351950       -0.1607799678  W2        3198            0.0000000000
      9593      3198  TIP3      H1             13.8711394676       30.0050051950       -0.2803799678  W2        3198            0.0000000000
      9594      3198  TIP3      H2             12.3683394676       29.9986051950       -0.0974699678  W2        3198            0.0000000000
      9595      3199  TIP3      OH2             1.5681794676       26.7314251950        2.4432800322  W2        3199            0.0000000000
      9596      3199  TIP3      H1              1.9762994676       25.8740851950        2.3223400322  W2        3199            0.0000000000
      9597      3199  TIP3      H2              1.3079394676       26.7455551950        3.3643100322  W2        3199            0.0000000000
      9598      3200  TIP3      OH2             6.2262794676       27.8472851950      -12.5383899678  W2        3200            0.0000000000
      9599      3200  TIP3      H1              5.7664794676       27.3631151950      -11.8525399678  W2        3200            0.0000000000
      9600      3200  TIP3      H2              6.4811494676       27.1788251950      -13.1743399678  W2        3200            0.0000000000
      9601      3201  TIP3      OH2             5.5152094676       25.7399951950       -0.1824299678  W2        3201            0.0000000000
      9602      3201  TIP3      H1              4.8968194676       26.4146551950        0.0980400322  W2        3201            0.0000000000
      9603      3201  TIP3      H2              5.8593294676       26.0613851950       -1.0158099678  W2        3201            0.0000000000
      9604      3202  TIP3      OH2             7.2973194676       26.0904651950      -14.2760699678  W2        3202            0.0000000000
      9605      3202  TIP3      H1              7.1168194676       25.9355851950      -15.2032399678  W2        3202            0.0000000000
      9606      3202  TIP3      H2              8.2473694676       26.1983351950      -14.2312799678  W2        3202            0.0000000000
      9607      3203  TIP3      OH2            10.5350294676       28.2115251950        3.0950500322  W2        3203            0.0000000000
      9608      3203  TIP3      H1             11.4881494676       28.2954351950        3.0676500322  W2        3203            0.0000000000
      9609      3203  TIP3      H2             10.3744894676       27.4997051950        3.7145400322  W2        3203            0.0000000000
      9610      3204  TIP3      OH2            16.6871494676       28.4448851950      -14.8302599678  W2        3204            0.0000000000
      9611      3204  TIP3      H1             16.4136294676       28.0204351950      -15.6434299678  W2        3204            0.0000000000
      9612      3204  TIP3      H2             16.7265594676       29.3763351950      -15.0472199678  W2        3204            0.0000000000
      9613      3205  TIP3      OH2             5.8545794676       23.0950751950        0.8998800322  W2        3205            0.0000000000
      9614      3205  TIP3      H1              6.0046694676       22.3662051950        0.2978500322  W2        3205            0.0000000000
      9615      3205  TIP3      H2              5.8568194676       23.8722451950        0.3411000322  W2        3205            0.0000000000
      9616      3206  TIP3      OH2             6.2671494676       21.4646551950       -1.6073799678  W2        3206            0.0000000000
      9617      3206  TIP3      H1              6.8028994676       21.9163251950       -2.2594499678  W2        3206            0.0000000000
      9618      3206  TIP3      H2              5.4151094676       21.3566351950       -2.0299699678  W2        3206            0.0000000000
      9619      3207  TIP3      OH2             7.8489894676       26.9042751950       -1.3678599678  W2        3207            0.0000000000
      9620      3207  TIP3      H1              8.5994694676       26.7480251950       -1.9410799678  W2        3207            0.0000000000
      9621      3207  TIP3      H2              7.5098194676       27.7559351950       -1.6433099678  W2        3207            0.0000000000
      9622      3208  TIP3      OH2            12.2646094676       24.7194551950        3.6606700322  W2        3208            0.0000000000
      9623      3208  TIP3      H1             12.4567394676       23.7883951950        3.5491200322  W2        3208            0.0000000000
      9624      3208  TIP3      H2             13.1222394676       25.1444051950        3.6502100322  W2        3208            0.0000000000
      9625      3209  TIP3      OH2            13.5813294676       27.5079751950        1.7379400322  W2        3209            0.0000000000
      9626      3209  TIP3      H1             13.2998294676       28.2174351950        1.1603200322  W2        3209            0.0000000000
      9627      3209  TIP3      H2             14.5237594676       27.4352751950        1.5870600322  W2        3209            0.0000000000
      9628      3210  TIP3      OH2             4.3332094676       24.2934251950        2.8114400322  W2        3210            0.0000000000
      9629      3210  TIP3      H1              3.5661094676       23.7609051950        2.6012000322  W2        3210            0.0000000000
      9630      3210  TIP3      H2              5.0121094676       23.9834651950        2.2120700322  W2        3210            0.0000000000
      9631      3211  TIP3      OH2             7.0726994676       18.9212251950       -1.1760199678  W2        3211            0.0000000000
      9632      3211  TIP3      H1              6.9746594676       19.8675451950       -1.2813999678  W2        3211            0.0000000000
      9633      3211  TIP3      H2              6.3303194676       18.5486051950       -1.6516699678  W2        3211            0.0000000000
      9634      3212  TIP3      OH2             8.3367494676       23.2427651950        2.3878200322  W2        3212            0.0000000000
      9635      3212  TIP3      H1              8.1012894676       23.0234351950        3.2893100322  W2        3212            0.0000000000
      9636      3212  TIP3      H2              7.5534394676       23.0358851950        1.8780700322  W2        3212            0.0000000000
      9637      3213  TIP3      OH2            11.0524094676       22.3701151950        1.4631700322  W2        3213            0.0000000000
      9638      3213  TIP3      H1             10.1049494676       22.4020851950        1.5955000322  W2        3213            0.0000000000
      9639      3213  TIP3      H2             11.3650794676       21.7448251950        2.1169900322  W2        3213            0.0000000000
      9640      3214  TIP3      OH2            12.6865594676       21.0042251950        3.4683600322  W2        3214            0.0000000000
      9641      3214  TIP3      H1             12.5897394676       20.0519551950        3.4625500322  W2        3214            0.0000000000
      9642      3214  TIP3      H2             12.3648694676       21.2729051950        4.3289100322  W2        3214            0.0000000000
      9643      3215  TIP3      OH2             2.5134894676       22.2138051950        2.5159100322  W2        3215            0.0000000000
      9644      3215  TIP3      H1              2.7252294676       21.5074151950        1.9056600322  W2        3215            0.0000000000
      9645      3215  TIP3      H2              2.4022394676       21.7764051950        3.3600300322  W2        3215            0.0000000000
      9646      3216  TIP3      OH2             7.2945094676       18.2149651950        1.4952600322  W2        3216            0.0000000000
      9647      3216  TIP3      H1              8.0063494676       17.5751851950        1.4811700322  W2        3216            0.0000000000
      9648      3216  TIP3      H2              7.1935494676       18.4817951950        0.5815700322  W2        3216            0.0000000000
      9649      3217  TIP3      OH2             7.6482594676       19.8978051950        3.5488900322  W2        3217            0.0000000000
      9650      3217  TIP3      H1              7.5164794676       19.4221851950        2.7287400322  W2        3217            0.0000000000
      9651      3217  TIP3      H2              7.0489994676       20.6421651950        3.4936000322  W2        3217            0.0000000000
      9652      3218  TIP3      OH2             7.1944894676       36.7808351950      -13.2747099678  W2        3218            0.0000000000
      9653      3218  TIP3      H1              8.1275594676       36.9387051950      -13.1308699678  W2        3218            0.0000000000
      9654      3218  TIP3      H2              6.9303694676       37.4561351950      -13.8995599678  W2        3218            0.0000000000
      9655      3219  TIP3      OH2             0.7629794676       31.4172151950      -13.7918999678  W2        3219            0.0000000000
      9656      3219  TIP3      H1              1.6768994676       31.4961051950      -13.5185099678  W2        3219            0.0000000000
      9657      3219  TIP3      H2              0.7702894676       30.7301751950      -14.4583399678  W2        3219            0.0000000000
      9658      3220  TIP3      OH2            -0.5879605324       36.8100651950       -8.7145099678  W2        3220            0.0000000000
      9659      3220  TIP3      H1             -1.2352505324       36.3482351950       -9.2473899678  W2        3220            0.0000000000
      9660      3220  TIP3      H2             -0.2335005324       36.1383951950       -8.1318899678  W2        3220            0.0000000000
      9661      3221  TIP3      OH2             0.2819594676       34.8907651950       -6.9098899678  W2        3221            0.0000000000
      9662      3221  TIP3      H1             -0.0523605324       34.0104951950       -6.7378699678  W2        3221            0.0000000000
      9663      3221  TIP3      H2              0.5041994676       35.2362651950       -6.0453299678  W2        3221            0.0000000000
      9664      3222  TIP3      OH2            17.8304394676       35.7004051950       -3.9294099678  W2        3222            0.0000000000
      9665      3222  TIP3      H1             17.8091094676       35.8852451950       -2.9904699678  W2        3222            0.0000000000
      9666      3222  TIP3      H2             18.5210594676       36.2688051950       -4.2702699678  W2        3222            0.0000000000
      9667      3223  TIP3      OH2            17.3937294676       35.2675151950       -1.0074999678  W2        3223            0.0000000000
      9668      3223  TIP3      H1             16.9065994676       34.5319251950       -1.3787599678  W2        3223            0.0000000000
      9669      3223  TIP3      H2             17.9429994676       34.8739051950       -0.3295599678  W2        3223            0.0000000000
      9670      3224  TIP3      OH2            15.8444594676       31.0573251950        3.6305300322  W2        3224            0.0000000000
      9671      3224  TIP3      H1             14.9785694676       30.9522951950        4.0247600322  W2        3224            0.0000000000
      9672      3224  TIP3      H2             16.2210494676       31.8156551950        4.0770000322  W2        3224            0.0000000000
      9673      3225  TIP3      OH2            17.1454294676       29.3136951950      -10.8552199678  W2        3225            0.0000000000
      9674      3225  TIP3      H1             17.9955694676       29.7347851950      -10.7280599678  W2        3225            0.0000000000
      9675      3225  TIP3      H2             17.1509394676       28.5737051950      -10.2480799678  W2        3225            0.0000000000
      9676      3226  TIP3      OH2            17.5399894676       27.3674351950       -9.0316499678  W2        3226            0.0000000000
      9677      3226  TIP3      H1             16.8134494676       26.8876951950       -8.6338899678  W2        3226            0.0000000000
      9678      3226  TIP3      H2             18.1213194676       27.5729051950       -8.2994899678  W2        3226            0.0000000000
      9679      3227  TIP3      OH2            17.2991094676       30.1521851950       -4.0838899678  W2        3227            0.0000000000
      9680      3227  TIP3      H1             18.1325294676       29.7741851950       -4.3645299678  W2        3227            0.0000000000
      9681      3227  TIP3      H2             17.4111394676       31.0953051950       -4.2029799678  W2        3227            0.0000000000
      9682      3228  TIP3      OH2            15.7853394676       33.0299351950       -1.7770499678  W2        3228            0.0000000000
      9683      3228  TIP3      H1             15.1378694676       33.3550851950       -1.1515299678  W2        3228            0.0000000000
      9684      3228  TIP3      H2             15.2677394676       32.5897051950       -2.4512199678  W2        3228            0.0000000000
      9685      3229  TIP3      OH2            17.8082994676       27.2682851950      -12.6405199678  W2        3229            0.0000000000
      9686      3229  TIP3      H1             17.2864094676       27.6246951950      -13.3594299678  W2        3229            0.0000000000
      9687      3229  TIP3      H2             17.7752194676       27.9430651950      -11.9624299678  W2        3229            0.0000000000
      9688      3230  TIP3      OH2            16.1571994676       24.5078451950      -14.0898099678  W2        3230            0.0000000000
      9689      3230  TIP3      H1             16.2536394676       25.1745451950      -14.7698399678  W2        3230            0.0000000000
      9690      3230  TIP3      H2             16.0171594676       23.6924751950      -14.5712599678  W2        3230            0.0000000000
      9691      3231  TIP3      OH2            15.3266694676       25.8880851950       -8.4687799678  W2        3231            0.0000000000
      9692      3231  TIP3      H1             15.1765494676       24.9429451950       -8.4889999678  W2        3231            0.0000000000
      9693      3231  TIP3      H2             14.9731194676       26.1692251950       -7.6248699678  W2        3231            0.0000000000
      9694      3232  TIP3      OH2             0.3619094676       27.9663051950       -4.4583999678  W2        3232            0.0000000000
      9695      3232  TIP3      H1              0.5461994676       27.8844751950       -5.3941099678  W2        3232            0.0000000000
      9696      3232  TIP3      H2              1.2111994676       27.8420051950       -4.0347599678  W2        3232            0.0000000000
      9697      3233  TIP3      OH2            16.1829594676       27.8584151950        1.1700500322  W2        3233            0.0000000000
      9698      3233  TIP3      H1             16.7656894676       27.1236451950        1.3617700322  W2        3233            0.0000000000
      9699      3233  TIP3      H2             16.7468894676       28.6304451950        1.2166300322  W2        3233            0.0000000000
      9700      3234  TIP3      OH2            17.6796694676       25.7609951950        1.8545900322  W2        3234            0.0000000000
      9701      3234  TIP3      H1             16.8163394676       25.3822051950        1.6890600322  W2        3234            0.0000000000
      9702      3234  TIP3      H2             18.2840394676       25.0224751950        1.7801700322  W2        3234            0.0000000000
      9703      3235  TIP3      OH2            15.4045794676       21.9158251950      -14.9722599678  W2        3235            0.0000000000
      9704      3235  TIP3      H1             16.0151594676       21.5445051950      -14.3354399678  W2        3235            0.0000000000
      9705      3235  TIP3      H2             14.5677294676       21.4945151950      -14.7762599678  W2        3235            0.0000000000
      9706      3236  TIP3      OH2            15.0371494676       23.4706651950      -10.0062699678  W2        3236            0.0000000000
      9707      3236  TIP3      H1             15.3168594676       22.5637051950       -9.8820999678  W2        3236            0.0000000000
      9708      3236  TIP3      H2             15.7963194676       23.9048151950      -10.3953499678  W2        3236            0.0000000000
      9709      3237  TIP3      OH2            15.6489794676       24.0524051950       -4.5703799678  W2        3237            0.0000000000
      9710      3237  TIP3      H1             16.5817794676       24.2643951950       -4.6047799678  W2        3237            0.0000000000
      9711      3237  TIP3      H2             15.4137294676       24.1536151950       -3.6480799678  W2        3237            0.0000000000
      9712      3238  TIP3      OH2            15.6781694676       24.7889351950       -1.7944399678  W2        3238            0.0000000000
      9713      3238  TIP3      H1             14.8352994676       25.0569751950       -1.4284599678  W2        3238            0.0000000000
      9714      3238  TIP3      H2             16.1205994676       25.6111251950       -2.0053299678  W2        3238            0.0000000000
      9715      3239  TIP3      OH2            -0.0406105324       23.2368051950        1.6824800322  W2        3239            0.0000000000
      9716      3239  TIP3      H1              0.8788794676       23.1146351950        1.9187900322  W2        3239            0.0000000000
      9717      3239  TIP3      H2             -0.4901605324       22.4867751950        2.0718300322  W2        3239            0.0000000000
      9718      3240  TIP3      OH2            17.9613294676       18.7689551950        3.5590600322  W2        3240            0.0000000000
      9719      3240  TIP3      H1             18.3110294676       18.1153051950        2.9535300322  W2        3240            0.0000000000
      9720      3240  TIP3      H2             18.1082794676       19.6063651950        3.1193200322  W2        3240            0.0000000000
      9721      3241  TIP3      OH2            15.6506294676       20.7335951950       -9.9580699678  W2        3241            0.0000000000
      9722      3241  TIP3      H1             15.8331294676       20.2847451950       -9.1325699678  W2        3241            0.0000000000
      9723      3241  TIP3      H2             15.0509194676       20.1490351950      -10.4216099678  W2        3241            0.0000000000
      9724      3242  TIP3      OH2             1.1806394676       21.5489651950       -5.4262299678  W2        3242            0.0000000000
      9725      3242  TIP3      H1              1.6257994676       20.7572151950       -5.1242599678  W2        3242            0.0000000000
      9726      3242  TIP3      H2              1.6469394676       22.2654851950       -4.9956699678  W2        3242            0.0000000000
      9727      3243  TIP3      OH2            -0.5153305324       24.5482651950       -4.3572099678  W2        3243            0.0000000000
      9728      3243  TIP3      H1             -0.0233505324       24.3273151950       -5.1480099678  W2        3243            0.0000000000
      9729      3243  TIP3      H2             -0.1532405324       25.3886051950       -4.0762599678  W2        3243            0.0000000000
      9730      3244  TIP3      OH2            17.4810494676       20.8784151950        1.9081900322  W2        3244            0.0000000000
      9731      3244  TIP3      H1             16.5636194676       21.1491251950        1.8725400322  W2        3244            0.0000000000
      9732      3244  TIP3      H2             17.6039894676       20.3432551950        1.1241600322  W2        3244            0.0000000000
      9733      3245  TIP3      OH2            17.5172494676       20.8014051950      -13.4300399678  W2        3245            0.0000000000
      9734      3245  TIP3      H1             17.9295094676       20.0799751950      -13.9052399678  W2        3245            0.0000000000
      9735      3245  TIP3      H2             18.1988994676       21.4708651950      -13.3716099678  W2        3245            0.0000000000
      9736      3246  TIP3      OH2            -0.2016805324       20.8061751950      -10.3029699678  W2        3246            0.0000000000
      9737      3246  TIP3      H1             -1.1268405324       21.0148351950      -10.4324199678  W2        3246            0.0000000000
      9738      3246  TIP3      H2              0.2523094676       21.2902551950      -10.9927399678  W2        3246            0.0000000000
      9739      3247  TIP3      OH2            14.5690394676       35.7903451950       -8.3572299678  W2        3247            0.0000000000
      9740      3247  TIP3      H1             15.2213294676       35.4425551950       -8.9653199678  W2        3247            0.0000000000
      9741      3247  TIP3      H2             15.0794194676       36.2786651950       -7.7112599678  W2        3247            0.0000000000
      9742      3248  TIP3      OH2            -0.2381405324       19.5440751950       -1.9587199678  W2        3248            0.0000000000
      9743      3248  TIP3      H1             -0.9030905324       19.2981051950       -1.3156299678  W2        3248            0.0000000000
      9744      3248  TIP3      H2             -0.6810105324       20.1661151950       -2.5359199678  W2        3248            0.0000000000
      9745      3249  TIP3      OH2             1.9537894676       32.7194851950        2.1858600322  W2        3249            0.0000000000
      9746      3249  TIP3      H1              1.1330394676       32.8941351950        1.7253300322  W2        3249            0.0000000000
      9747      3249  TIP3      H2              1.7015694676       32.6459551950        3.1063000322  W2        3249            0.0000000000
      9748      3250  TIP3      OH2             4.9080794676       33.6936051950       -1.5557399678  W2        3250            0.0000000000
      9749      3250  TIP3      H1              4.4831894676       34.5034551950       -1.8382799678  W2        3250            0.0000000000
      9750      3250  TIP3      H2              5.8123594676       33.7790151950       -1.8577599678  W2        3250            0.0000000000
      9751      3251  TIP3      OH2             9.2192194676       35.0926051950        1.4036300322  W2        3251            0.0000000000
      9752      3251  TIP3      H1              9.4039694676       34.7592151950        2.2816600322  W2        3251            0.0000000000
      9753      3251  TIP3      H2             10.0656694676       35.4024651950        1.0815500322  W2        3251            0.0000000000
      9754      3252  TIP3      OH2            11.5642594676       36.3784951950        0.6477700322  W2        3252            0.0000000000
      9755      3252  TIP3      H1             12.2411494676       35.7457251950        0.4076900322  W2        3252            0.0000000000
      9756      3252  TIP3      H2             11.8861394676       36.7795451950        1.4551000322  W2        3252            0.0000000000
      9757      3253  TIP3      OH2            16.4816394676       18.9680451950       -0.2727299678  W2        3253            0.0000000000
      9758      3253  TIP3      H1             15.6689894676       19.2930751950       -0.6602599678  W2        3253            0.0000000000
      9759      3253  TIP3      H2             16.7144894676       18.2078951950       -0.8058199678  W2        3253            0.0000000000
      9760      3254  TIP3      OH2             2.3097494676       36.9499951950       -1.5082099678  W2        3254            0.0000000000
      9761      3254  TIP3      H1              1.5893894676       37.3900951950       -1.9594399678  W2        3254            0.0000000000
      9762      3254  TIP3      H2              1.9441494676       36.6994651950       -0.6598099678  W2        3254            0.0000000000
      9763      3255  TIP3      OH2             4.7770094676       36.5503851950       -2.4784899678  W2        3255            0.0000000000
      9764      3255  TIP3      H1              3.9122294676       36.6222351950       -2.0744799678  W2        3255            0.0000000000
      9765      3255  TIP3      H2              4.7219094676       37.0971151950       -3.2622399678  W2        3255            0.0000000000
      9766      3256  TIP3      OH2             9.4875694676       36.4382751950       -3.3028899678  W2        3256            0.0000000000
      9767      3256  TIP3      H1              9.0309694676       36.9672451950       -3.9570499678  W2        3256            0.0000000000
      9768      3256  TIP3      H2              9.6503694676       37.0414151950       -2.5776599678  W2        3256            0.0000000000
      9769      3257  TIP3      OH2            11.8151994676       35.3162351950       -2.3578599678  W2        3257            0.0000000000
      9770      3257  TIP3      H1             10.9105694676       35.4812551950       -2.6236499678  W2        3257            0.0000000000
      9771      3257  TIP3      H2             12.2440594676       36.1694551950       -2.4235199678  W2        3257            0.0000000000
      9772      3258  TIP3      OH2            14.4193894676       36.8861451950       -2.0630799678  W2        3258            0.0000000000
      9773      3258  TIP3      H1             14.2375894676       37.8020351950       -2.2735899678  W2        3258            0.0000000000
      9774      3258  TIP3      H2             14.5961694676       36.4758551950       -2.9096199678  W2        3258            0.0000000000
      9775      3259  TIP3      OH2             1.7245594676       35.5732451950       -4.5980299678  W2        3259            0.0000000000
      9776      3259  TIP3      H1              1.7061594676       35.1477551950       -3.7407999678  W2        3259            0.0000000000
      9777      3259  TIP3      H2              2.5293494676       35.2547451950       -5.0068099678  W2        3259            0.0000000000
      9778      3260  TIP3      OH2             3.8658694676       34.2831151950       -5.9430399678  W2        3260            0.0000000000
      9779      3260  TIP3      H1              3.6469394676       33.3668551950       -5.7734399678  W2        3260            0.0000000000
      9780      3260  TIP3      H2              4.6900894676       34.4231551950       -5.4768999678  W2        3260            0.0000000000
      9781      3261  TIP3      OH2             6.4031194676       34.7530451950       -5.0942399678  W2        3261            0.0000000000
      9782      3261  TIP3      H1              6.6156894676       33.8649451950       -5.3811499678  W2        3261            0.0000000000
      9783      3261  TIP3      H2              6.4676294676       34.7188151950       -4.1398399678  W2        3261            0.0000000000
      9784      3262  TIP3      OH2             9.9114894676       20.4171051950       -5.9499099678  W2        3262            0.0000000000
      9785      3262  TIP3      H1              9.2371694676       19.7876651950       -5.6943299678  W2        3262            0.0000000000
      9786      3262  TIP3      H2             10.4754094676       19.9329951950       -6.5531199678  W2        3262            0.0000000000
      9787      3263  TIP3      OH2            15.0542094676       18.5245051950       -5.8371999678  W2        3263            0.0000000000
      9788      3263  TIP3      H1             15.6579694676       19.0720451950       -6.3390999678  W2        3263            0.0000000000
      9789      3263  TIP3      H2             14.1844094676       18.8435451950       -6.0777899678  W2        3263            0.0000000000
      9790      3264  TIP3      OH2            16.7812494676       19.6633751950       -7.5041099678  W2        3264            0.0000000000
      9791      3264  TIP3      H1             17.3929994676       19.1489451950       -8.0307499678  W2        3264            0.0000000000
      9792      3264  TIP3      H2             17.1635894676       20.5405851950       -7.4806699678  W2        3264            0.0000000000
      9793      3265  TIP3      OH2             2.2382394676       19.0511351950       -8.1279199678  W2        3265            0.0000000000
      9794      3265  TIP3      H1              1.4612194676       18.8166251950       -8.6353299678  W2        3265            0.0000000000
      9795      3265  TIP3      H2              2.7685994676       18.2543451950       -8.1191199678  W2        3265            0.0000000000
      9796      3266  TIP3      OH2             1.0745794676       18.8489451950      -12.3243099678  W2        3266            0.0000000000
      9797      3266  TIP3      H1              1.5136494676       19.4599951950      -12.9159599678  W2        3266            0.0000000000
      9798      3266  TIP3      H2              0.4408194676       19.3873551950      -11.8503099678  W2        3266            0.0000000000
      9799      3267  TIP3      OH2             6.8174994676       18.9778451950       -8.3146099678  W2        3267            0.0000000000
      9800      3267  TIP3      H1              7.6918394676       19.3662751950       -8.3441799678  W2        3267            0.0000000000
      9801      3267  TIP3      H2              6.6815794676       18.7626251950       -7.3918899678  W2        3267            0.0000000000
      9802      3268  TIP3      OH2            12.3743394676       19.0078251950       -6.6654399678  W2        3268            0.0000000000
      9803      3268  TIP3      H1             12.4504994676       19.1029851950       -7.6148399678  W2        3268            0.0000000000
      9804      3268  TIP3      H2             12.0992594676       18.1001151950       -6.5365299678  W2        3268            0.0000000000
      9805      3269  TIP3      OH2            13.7275994676       19.0336051950      -10.9729399678  W2        3269            0.0000000000
      9806      3269  TIP3      H1             13.0247094676       19.6485251950      -11.1827999678  W2        3269            0.0000000000
      9807      3269  TIP3      H2             13.2827394676       18.1962751950      -10.8418499678  W2        3269            0.0000000000
      9808      3270  TIP3      OH2             0.9755294676       34.7971651950      -11.4267999678  W2        3270            0.0000000000
      9809      3270  TIP3      H1              0.2905194676       34.7590551950      -12.0942899678  W2        3270            0.0000000000
      9810      3270  TIP3      H2              0.9792494676       35.7099251950      -11.1385899678  W2        3270            0.0000000000
      9811      3271  TIP3      OH2             2.9354894676       20.7650951950      -13.8818999678  W2        3271            0.0000000000
      9812      3271  TIP3      H1              3.4268294676       20.1353351950      -14.4093499678  W2        3271            0.0000000000
      9813      3271  TIP3      H2              3.5591194676       21.0610351950      -13.2187799678  W2        3271            0.0000000000
      9814      3272  TIP3      OH2             7.9614994676       21.0582451950      -11.4248499678  W2        3272            0.0000000000
      9815      3272  TIP3      H1              8.1396294676       20.4115651950      -10.7419899678  W2        3272            0.0000000000
      9816      3272  TIP3      H2              7.9081194676       21.8920151950      -10.9577399678  W2        3272            0.0000000000
      9817      3273  TIP3      OH2             9.8398794676       36.0066551950      -13.0291799678  W2        3273            0.0000000000
      9818      3273  TIP3      H1             10.7058994676       36.3733951950      -13.2073599678  W2        3273            0.0000000000
      9819      3273  TIP3      H2              9.5931594676       35.5674551950      -13.8430999678  W2        3273            0.0000000000
      9820      3274  TIP3      OH2            16.5488394676       35.5696851950      -10.3500699678  W2        3274            0.0000000000
      9821      3274  TIP3      H1             16.3545494676       34.8218951950      -10.9151099678  W2        3274            0.0000000000
      9822      3274  TIP3      H2             16.5098494676       36.3276951950      -10.9332799678  W2        3274            0.0000000000
      9823      3275  TIP3      OH2             2.1960394676       19.5653251950        1.3897000322  W2        3275            0.0000000000
      9824      3275  TIP3      H1              1.8298594676       18.7995851950        1.8321700322  W2        3275            0.0000000000
      9825      3275  TIP3      H2              3.1088894676       19.5943451950        1.6762100322  W2        3275            0.0000000000
      9826      3276  TIP3      OH2             4.1691194676       18.9157651950        2.9254100322  W2        3276            0.0000000000
      9827      3276  TIP3      H1              5.0674794676       18.6417851950        2.7407500322  W2        3276            0.0000000000
      9828      3276  TIP3      H2              3.7824294676       18.1733651950        3.3896700322  W2        3276            0.0000000000
      9829      3277  TIP3      OH2             2.7936494676       35.7172451950      -14.4015899678  W2        3277            0.0000000000
      9830      3277  TIP3      H1              2.5261094676       36.0035351950      -13.5282799678  W2        3277            0.0000000000
      9831      3277  TIP3      H2              3.5649094676       35.1711651950      -14.2493399678  W2        3277            0.0000000000
      9832      3278  TIP3      OH2            12.5903494676       18.2482951950        3.1076900322  W2        3278            0.0000000000
      9833      3278  TIP3      H1             12.6670694676       17.8223651950        3.9614600322  W2        3278            0.0000000000
      9834      3278  TIP3      H2             13.4840094676       18.2617651950        2.7650400322  W2        3278            0.0000000000
      9835      3279  TIP3      OH2            15.7664594676       34.3209251950        1.8001100322  W2        3279            0.0000000000
      9836      3279  TIP3      H1             14.9846494676       34.1347251950        1.2801700322  W2        3279            0.0000000000
      9837      3279  TIP3      H2             15.6944494676       35.2503551950        2.0173600322  W2        3279            0.0000000000
      9838      3280  TIP3      OH2            30.1724994676       28.2073651950       -8.1691699678  W2        3280            0.0000000000
      9839      3280  TIP3      H1             30.2616094676       29.1511851950       -8.3014599678  W2        3280            0.0000000000
      9840      3280  TIP3      H2             29.5342594676       27.9320051950       -8.8272299678  W2        3280            0.0000000000
      9841      3281  TIP3      OH2            29.1056294676       27.4624351950       -4.7503499678  W2        3281            0.0000000000
      9842      3281  TIP3      H1             29.0673794676       26.8160651950       -4.0453899678  W2        3281            0.0000000000
      9843      3281  TIP3      H2             28.7832794676       26.9958751950       -5.5214799678  W2        3281            0.0000000000
      9844      3282  TIP3      OH2            21.4741294676       27.0766451950       -3.1573599678  W2        3282            0.0000000000
      9845      3282  TIP3      H1             21.5153394676       26.4509751950       -2.4341199678  W2        3282            0.0000000000
      9846      3282  TIP3      H2             22.1768994676       27.7005051950       -2.9753199678  W2        3282            0.0000000000
      9847      3283  TIP3      OH2            32.8116494676       30.4014751950       -6.4488399678  W2        3283            0.0000000000
      9848      3283  TIP3      H1             32.3709194676       29.6810751950       -5.9982799678  W2        3283            0.0000000000
      9849      3283  TIP3      H2             32.7986194676       31.1221951950       -5.8190699678  W2        3283            0.0000000000
      9850      3284  TIP3      OH2            22.3974394676       31.5265351950       -4.6224499678  W2        3284            0.0000000000
      9851      3284  TIP3      H1             22.0279594676       30.7245851950       -4.9920199678  W2        3284            0.0000000000
      9852      3284  TIP3      H2             23.3385494676       31.3580251950       -4.5761099678  W2        3284            0.0000000000
      9853      3285  TIP3      OH2            19.0074894676       25.1867951950       -9.2295699678  W2        3285            0.0000000000
      9854      3285  TIP3      H1             18.5598294676       26.0326651950       -9.2479199678  W2        3285            0.0000000000
      9855      3285  TIP3      H2             18.4466094676       24.6072151950       -9.7450599678  W2        3285            0.0000000000
      9856      3286  TIP3      OH2            19.7180994676       27.3487551950       -7.1037699678  W2        3286            0.0000000000
      9857      3286  TIP3      H1             19.9314494676       26.5789151950       -6.5764699678  W2        3286            0.0000000000
      9858      3286  TIP3      H2             20.4558594676       27.4384251950       -7.7070099678  W2        3286            0.0000000000
      9859      3287  TIP3      OH2            29.9231994676       35.5056451950       -6.2367999678  W2        3287            0.0000000000
      9860      3287  TIP3      H1             30.5428394676       34.8291151950       -6.5098799678  W2        3287            0.0000000000
      9861      3287  TIP3      H2             29.7149394676       35.2877251950       -5.3283099678  W2        3287            0.0000000000
      9862      3288  TIP3      OH2            27.4950694676       29.8945751950       -4.3442499678  W2        3288            0.0000000000
      9863      3288  TIP3      H1             27.7988594676       29.2087151950       -4.9388399678  W2        3288            0.0000000000
      9864      3288  TIP3      H2             28.2164694676       30.0134451950       -3.7264499678  W2        3288            0.0000000000
      9865      3289  TIP3      OH2            36.1580494676       21.4961051950       -3.4836299678  W2        3289            0.0000000000
      9866      3289  TIP3      H1             36.2072694676       22.1062251950       -2.7477199678  W2        3289            0.0000000000
      9867      3289  TIP3      H2             36.5835594676       21.9571951950       -4.2065199678  W2        3289            0.0000000000
      9868      3290  TIP3      OH2            30.6357694676       24.2888151950       -4.0167699678  W2        3290            0.0000000000
      9869      3290  TIP3      H1             30.7783594676       23.3425151950       -3.9966099678  W2        3290            0.0000000000
      9870      3290  TIP3      H2             30.5296694676       24.4957951950       -4.9452799678  W2        3290            0.0000000000
      9871      3291  TIP3      OH2            23.7905994676       22.3904551950       -6.7442899678  W2        3291            0.0000000000
      9872      3291  TIP3      H1             23.8337094676       23.2503051950       -7.1626599678  W2        3291            0.0000000000
      9873      3291  TIP3      H2             23.3330094676       21.8379251950       -7.3779699678  W2        3291            0.0000000000
      9874      3292  TIP3      OH2            31.5128694676       22.5210151950       -8.3434599678  W2        3292            0.0000000000
      9875      3292  TIP3      H1             32.1592994676       22.1923351950       -7.7186999678  W2        3292            0.0000000000
      9876      3292  TIP3      H2             32.0228094676       23.0389151950       -8.9663199678  W2        3292            0.0000000000
      9877      3293  TIP3      OH2            20.4107494676       24.7870351950       -5.9821499678  W2        3293            0.0000000000
      9878      3293  TIP3      H1             21.0644094676       24.2372051950       -5.5501399678  W2        3293            0.0000000000
      9879      3293  TIP3      H2             20.4346794676       24.5129351950       -6.8989499678  W2        3293            0.0000000000
      9880      3294  TIP3      OH2            25.5671994676       26.3371651950       -6.7669999678  W2        3294            0.0000000000
      9881      3294  TIP3      H1             26.1832994676       25.8107051950       -6.2575999678  W2        3294            0.0000000000
      9882      3294  TIP3      H2             24.9810794676       25.6970351950       -7.1706399678  W2        3294            0.0000000000
      9883      3295  TIP3      OH2            36.5495094676       22.9740251950       -1.2476499678  W2        3295            0.0000000000
      9884      3295  TIP3      H1             35.8609694676       23.6320951950       -1.3429899678  W2        3295            0.0000000000
      9885      3295  TIP3      H2             36.5649694676       22.7768151950       -0.3111099678  W2        3295            0.0000000000
      9886      3296  TIP3      OH2            22.6007894676       21.3082951950       -2.6702099678  W2        3296            0.0000000000
      9887      3296  TIP3      H1             22.3819594676       21.8383551950       -3.4366099678  W2        3296            0.0000000000
      9888      3296  TIP3      H2             21.9328794676       21.5348451950       -2.0230699678  W2        3296            0.0000000000
      9889      3297  TIP3      OH2            29.9697694676       30.8084051950       -9.1262999678  W2        3297            0.0000000000
      9890      3297  TIP3      H1             29.6742794676       30.4856351950       -9.9776099678  W2        3297            0.0000000000
      9891      3297  TIP3      H2             29.6455494676       31.7080751950       -9.0850399678  W2        3297            0.0000000000
      9892      3298  TIP3      OH2            25.1699294676       28.9838651950       -2.3828399678  W2        3298            0.0000000000
      9893      3298  TIP3      H1             24.4298394676       29.5820151950       -2.2793199678  W2        3298            0.0000000000
      9894      3298  TIP3      H2             25.8838794676       29.5378251950       -2.6984799678  W2        3298            0.0000000000
      9895      3299  TIP3      OH2            33.2767094676       21.8119451950       -6.3628699678  W2        3299            0.0000000000
      9896      3299  TIP3      H1             33.0615094676       21.0462851950       -5.8302699678  W2        3299            0.0000000000
      9897      3299  TIP3      H2             33.9324494676       22.2844051950       -5.8500199678  W2        3299            0.0000000000
      9898      3300  TIP3      OH2            22.1945194676       23.2004751950       -4.7179899678  W2        3300            0.0000000000
      9899      3300  TIP3      H1             22.8081494676       23.8332351950       -4.3447499678  W2        3300            0.0000000000
      9900      3300  TIP3      H2             22.7065894676       22.7279751950       -5.3742999678  W2        3300            0.0000000000
      9901      3301  TIP3      OH2            23.5773594676       30.9481651950       -1.5956899678  W2        3301            0.0000000000
      9902      3301  TIP3      H1             23.5721194676       31.8275151950       -1.9737599678  W2        3301            0.0000000000
      9903      3301  TIP3      H2             22.7237694676       30.8645751950       -1.1706999678  W2        3301            0.0000000000
      9904      3302  TIP3      OH2            19.6984494676       30.6189551950      -10.8137599678  W2        3302            0.0000000000
      9905      3302  TIP3      H1             19.4265394676       30.8480551950      -11.7024699678  W2        3302            0.0000000000
      9906      3302  TIP3      H2             19.7440194676       31.4568351950      -10.3532299678  W2        3302            0.0000000000
      9907      3303  TIP3      OH2            33.3234194676       32.2405451950       -4.1009099678  W2        3303            0.0000000000
      9908      3303  TIP3      H1             32.3817894676       32.2989351950       -3.9392199678  W2        3303            0.0000000000
      9909      3303  TIP3      H2             33.6000294676       33.1465951950       -4.2379399678  W2        3303            0.0000000000
      9910      3304  TIP3      OH2            33.6241194676       20.5270751950       -2.6835199678  W2        3304            0.0000000000
      9911      3304  TIP3      H1             32.8880394676       21.1377851950       -2.7213899678  W2        3304            0.0000000000
      9912      3304  TIP3      H2             34.3075194676       20.9419751950       -3.2098799678  W2        3304            0.0000000000
      9913      3305  TIP3      OH2            26.6272594676       18.6138051950       -5.2177199678  W2        3305            0.0000000000
      9914      3305  TIP3      H1             26.5096794676       17.6654051950       -5.2718899678  W2        3305            0.0000000000
      9915      3305  TIP3      H2             25.7722694676       18.9464151950       -4.9446099678  W2        3305            0.0000000000
      9916      3306  TIP3      OH2            31.5755394676       34.0218951950       -7.4757499678  W2        3306            0.0000000000
      9917      3306  TIP3      H1             32.0007694676       33.3146851950       -7.9607899678  W2        3306            0.0000000000
      9918      3306  TIP3      H2             31.8925394676       34.8231651950       -7.8925299678  W2        3306            0.0000000000
      9919      3307  TIP3      OH2            32.7351894676       31.9227451950       -8.9670899678  W2        3307            0.0000000000
      9920      3307  TIP3      H1             32.4776694676       31.2327551950       -9.5784999678  W2        3307            0.0000000000
      9921      3307  TIP3      H2             32.8062694676       31.4798651950       -8.1214999678  W2        3307            0.0000000000
      9922      3308  TIP3      OH2            34.4212094676       30.4894151950       -0.4897399678  W2        3308            0.0000000000
      9923      3308  TIP3      H1             34.5608394676       29.8976651950       -1.2290399678  W2        3308            0.0000000000
      9924      3308  TIP3      H2             34.5884894676       31.3620051950       -0.8458599678  W2        3308            0.0000000000
      9925      3309  TIP3      OH2            28.8937494676       27.4513651950      -10.7171399678  W2        3309            0.0000000000
      9926      3309  TIP3      H1             28.1822994676       27.9863351950      -11.0690899678  W2        3309            0.0000000000
      9927      3309  TIP3      H2             29.5847094676       27.5065751950      -11.3772499678  W2        3309            0.0000000000
      9928      3310  TIP3      OH2            28.9476694676       25.9087951950      -13.6786399678  W2        3310            0.0000000000
      9929      3310  TIP3      H1             29.6486594676       25.9314851950      -13.0272399678  W2        3310            0.0000000000
      9930      3310  TIP3      H2             29.2499594676       25.2807651950      -14.3347099678  W2        3310            0.0000000000
      9931      3311  TIP3      OH2            36.2631394676       26.8292151950       -2.4236999678  W2        3311            0.0000000000
      9932      3311  TIP3      H1             35.6105494676       27.5237751950       -2.3346099678  W2        3311            0.0000000000
      9933      3311  TIP3      H2             36.7281694676       27.0393051950       -3.2335399678  W2        3311            0.0000000000
      9934      3312  TIP3      OH2            32.2995194676       27.6606951950       -9.7655499678  W2        3312            0.0000000000
      9935      3312  TIP3      H1             31.5676194676       27.8890651950       -9.1924899678  W2        3312            0.0000000000
      9936      3312  TIP3      H2             32.7467394676       26.9469651950       -9.3107999678  W2        3312            0.0000000000
      9937      3313  TIP3      OH2            32.1968694676       25.8349551950       -0.6978499678  W2        3313            0.0000000000
      9938      3313  TIP3      H1             32.2767794676       26.5983951950       -0.1259999678  W2        3313            0.0000000000
      9939      3313  TIP3      H2             31.5956394676       26.1141951950       -1.3883399678  W2        3313            0.0000000000
      9940      3314  TIP3      OH2            23.9448894676       28.2913151950       -7.8830499678  W2        3314            0.0000000000
      9941      3314  TIP3      H1             23.6144094676       27.9206551950       -8.7013499678  W2        3314            0.0000000000
      9942      3314  TIP3      H2             24.5332994676       27.6207151950       -7.5362199678  W2        3314            0.0000000000
      9943      3315  TIP3      OH2            25.3116394676       31.7193751950       -5.2018299678  W2        3315            0.0000000000
      9944      3315  TIP3      H1             25.2167694676       31.1406851950       -5.9583699678  W2        3315            0.0000000000
      9945      3315  TIP3      H2             26.0409994676       31.3479451950       -4.7055499678  W2        3315            0.0000000000
      9946      3316  TIP3      OH2            24.3114394676       27.0598751950       -4.2495499678  W2        3316            0.0000000000
      9947      3316  TIP3      H1             24.8766894676       27.1812951950       -5.0124299678  W2        3316            0.0000000000
      9948      3316  TIP3      H2             24.6303294676       27.6973751950       -3.6106999678  W2        3316            0.0000000000
      9949      3317  TIP3      OH2            30.6206594676       32.5630651950       -3.5154999678  W2        3317            0.0000000000
      9950      3317  TIP3      H1             30.3803194676       33.2253751950       -2.8675799678  W2        3317            0.0000000000
      9951      3317  TIP3      H2             30.4224794676       31.7285851950       -3.0905399678  W2        3317            0.0000000000
      9952      3318  TIP3      OH2            25.1915094676       31.4591451950        0.4676400322  W2        3318            0.0000000000
      9953      3318  TIP3      H1             24.8802594676       32.2414651950        0.9229600322  W2        3318            0.0000000000
      9954      3318  TIP3      H2             24.5415294676       31.3060551950       -0.2181599678  W2        3318            0.0000000000
      9955      3319  TIP3      OH2            31.1704694676       26.8229851950      -12.0804299678  W2        3319            0.0000000000
      9956      3319  TIP3      H1             31.7500194676       26.9730151950      -11.3335399678  W2        3319            0.0000000000
      9957      3319  TIP3      H2             31.5844694676       27.2937251950      -12.8037899678  W2        3319            0.0000000000
      9958      3320  TIP3      OH2            22.1114994676       27.6572551950       -0.3037899678  W2        3320            0.0000000000
      9959      3320  TIP3      H1             22.1818194676       28.3079351950        0.3947100322  W2        3320            0.0000000000
      9960      3320  TIP3      H2             21.2207194676       27.7600051950       -0.6386999678  W2        3320            0.0000000000
      9961      3321  TIP3      OH2            28.8969594676       33.5598351950       -8.6451199678  W2        3321            0.0000000000
      9962      3321  TIP3      H1             29.3707194676       33.8554651950       -7.8676999678  W2        3321            0.0000000000
      9963      3321  TIP3      H2             28.3338894676       34.2979951950       -8.8781599678  W2        3321            0.0000000000
      9964      3322  TIP3      OH2            23.4310994676       33.5306451950        1.2310200322  W2        3322            0.0000000000
      9965      3322  TIP3      H1             23.4386294676       33.3946151950        0.2835700322  W2        3322            0.0000000000
      9966      3322  TIP3      H2             22.5151394676       33.4134551950        1.4830200322  W2        3322            0.0000000000
      9967      3323  TIP3      OH2            34.8693094676       18.5730251950      -12.2674599678  W2        3323            0.0000000000
      9968      3323  TIP3      H1             33.9693794676       18.7119251950      -11.9723999678  W2        3323            0.0000000000
      9969      3323  TIP3      H2             35.1211494676       19.4044851950      -12.6692899678  W2        3323            0.0000000000
      9970      3324  TIP3      OH2            22.9351594676       27.3607451950      -10.2937699678  W2        3324            0.0000000000
      9971      3324  TIP3      H1             22.6432894676       28.1289151950      -10.7846399678  W2        3324            0.0000000000
      9972      3324  TIP3      H2             22.2606794676       26.7013651950      -10.4566299678  W2        3324            0.0000000000
      9973      3325  TIP3      OH2            36.0584494676       32.9392651950      -13.8910699678  W2        3325            0.0000000000
      9974      3325  TIP3      H1             36.1317994676       33.8782851950      -13.7205399678  W2        3325            0.0000000000
      9975      3325  TIP3      H2             36.9639594676       32.6341251950      -13.9473399678  W2        3325            0.0000000000
      9976      3326  TIP3      OH2            19.0281694676       29.7236651950       -1.4787899678  W2        3326            0.0000000000
      9977      3326  TIP3      H1             18.5270094676       29.6956051950       -2.2938199678  W2        3326            0.0000000000
      9978      3326  TIP3      H2             19.0335394676       28.8179851950       -1.1690599678  W2        3326            0.0000000000
      9979      3327  TIP3      OH2            18.7784394676       32.5040451950       -4.5947699678  W2        3327            0.0000000000
      9980      3327  TIP3      H1             19.7244994676       32.3597451950       -4.6138199678  W2        3327            0.0000000000
      9981      3327  TIP3      H2             18.6660694676       33.2883251950       -4.0576499678  W2        3327            0.0000000000
      9982      3328  TIP3      OH2            36.9762894676       33.1700151950        1.0876000322  W2        3328            0.0000000000
      9983      3328  TIP3      H1             36.9269694676       32.2148251950        1.0503600322  W2        3328            0.0000000000
      9984      3328  TIP3      H2             36.1495194676       33.4375451950        1.4889800322  W2        3328            0.0000000000
      9985      3329  TIP3      OH2            27.9546894676       32.7439351950       -0.0362599678  W2        3329            0.0000000000
      9986      3329  TIP3      H1             28.0421494676       33.5703951950        0.4386500322  W2        3329            0.0000000000
      9987      3329  TIP3      H2             27.0911994676       32.4143151950        0.2126700322  W2        3329            0.0000000000
      9988      3330  TIP3      OH2            28.3692694676       36.5163051950      -10.2301999678  W2        3330            0.0000000000
      9989      3330  TIP3      H1             28.2938694676       36.3950251950      -11.1766799678  W2        3330            0.0000000000
      9990      3330  TIP3      H2             28.4021394676       37.4655751950      -10.1117399678  W2        3330            0.0000000000
      9991      3331  TIP3      OH2            22.0226494676       35.3050051950       -8.4492999678  W2        3331            0.0000000000
      9992      3331  TIP3      H1             22.1746894676       34.9570451950       -7.5706499678  W2        3331            0.0000000000
      9993      3331  TIP3      H2             21.1716894676       34.9487351950       -8.7045799678  W2        3331            0.0000000000
      9994      3332  TIP3      OH2            31.4708694676       35.6703251950      -13.2279599678  W2        3332            0.0000000000
      9995      3332  TIP3      H1             31.8457094676       34.9259351950      -13.6986999678  W2        3332            0.0000000000
      9996      3332  TIP3      H2             31.4752394676       35.4003851950      -12.3096299678  W2        3332            0.0000000000
      9997      3333  TIP3      OH2            31.1396794676       35.5960351950      -10.4787399678  W2        3333            0.0000000000
      9998      3333  TIP3      H1             30.2046594676       35.6962251950      -10.3000399678  W2        3333            0.0000000000
      9999      3333  TIP3      H2             31.4198694676       34.8866351950       -9.9004199678  W2        3333            0.0000000000
     10000      3334  TIP3      OH2            34.1282694676       24.6632651950        1.5678200322  W2        3334            0.0000000000
     10001      3334  TIP3      H1             33.7209494676       25.1438251950        0.8471500322  W2        3334            0.0000000000
     10002      3334  TIP3      H2             34.1688394676       23.7578651950        1.2599000322  W2        3334            0.0000000000
     10003      3335  TIP3      OH2            21.2772194676       31.0472051950       -0.4355099678  W2        3335            0.0000000000
     10004      3335  TIP3      H1             21.4933494676       30.6857651950        0.4240700322  W2        3335            0.0000000000
     10005      3335  TIP3      H2             20.4216894676       30.6725851950       -0.6451599678  W2        3335            0.0000000000
     10006      3336  TIP3      OH2            23.8960194676       19.5172551950       -4.4400899678  W2        3336            0.0000000000
     10007      3336  TIP3      H1             23.0343894676       19.4300751950       -4.8477999678  W2        3336            0.0000000000
     10008      3336  TIP3      H2             23.8735894676       20.3732651950       -4.0123299678  W2        3336            0.0000000000
     10009      3337  TIP3      OH2            28.5587994676       19.2392951950       -1.0653899678  W2        3337            0.0000000000
     10010      3337  TIP3      H1             28.9791094676       18.8240051950       -0.3123299678  W2        3337            0.0000000000
     10011      3337  TIP3      H2             27.6257594676       19.0606251950       -0.9481899678  W2        3337            0.0000000000
     10012      3338  TIP3      OH2            31.8852894676       22.9948151950       -0.2119399678  W2        3338            0.0000000000
     10013      3338  TIP3      H1             31.3712394676       22.8690351950        0.5856600322  W2        3338            0.0000000000
     10014      3338  TIP3      H2             31.7297594676       23.9071251950       -0.4563199678  W2        3338            0.0000000000
     10015      3339  TIP3      OH2            32.6477794676       27.8558151950      -14.4506399678  W2        3339            0.0000000000
     10016      3339  TIP3      H1             32.6898594676       27.6332051950      -15.3806399678  W2        3339            0.0000000000
     10017      3339  TIP3      H2             33.4969894676       28.2545251950      -14.2606499678  W2        3339            0.0000000000
     10018      3340  TIP3      OH2            28.2205294676       21.7316351950      -13.7803099678  W2        3340            0.0000000000
     10019      3340  TIP3      H1             27.9670094676       21.7507951950      -12.8574999678  W2        3340            0.0000000000
     10020      3340  TIP3      H2             27.9637394676       20.8601751950      -14.0816899678  W2        3340            0.0000000000
     10021      3341  TIP3      OH2            23.9870294676       24.4827051950       -3.3450699678  W2        3341            0.0000000000
     10022      3341  TIP3      H1             23.3452394676       24.4424351950       -2.6360599678  W2        3341            0.0000000000
     10023      3341  TIP3      H2             24.0242294676       25.4091751950       -3.5827699678  W2        3341            0.0000000000
     10024      3342  TIP3      OH2            23.9839394676       24.7037151950       -8.4330699678  W2        3342            0.0000000000
     10025      3342  TIP3      H1             23.0912294676       24.3633251950       -8.4916899678  W2        3342            0.0000000000
     10026      3342  TIP3      H2             24.4345994676       24.3268051950       -9.1887499678  W2        3342            0.0000000000
     10027      3343  TIP3      OH2            29.5194894676       25.1197451950       -9.6159899678  W2        3343            0.0000000000
     10028      3343  TIP3      H1             29.1105194676       25.9346051950       -9.9075099678  W2        3343            0.0000000000
     10029      3343  TIP3      H2             30.2401094676       24.9797551950      -10.2302799678  W2        3343            0.0000000000
     10030      3344  TIP3      OH2            28.6216494676       25.2953851950        1.8720800322  W2        3344            0.0000000000
     10031      3344  TIP3      H1             28.0590294676       24.5905451950        2.1928600322  W2        3344            0.0000000000
     10032      3344  TIP3      H2             29.4479894676       25.1745751950        2.3398400322  W2        3344            0.0000000000
     10033      3345  TIP3      OH2            30.5242594676       24.5657851950       -6.8020199678  W2        3345            0.0000000000
     10034      3345  TIP3      H1             30.3287094676       25.1714651950       -7.5169599678  W2        3345            0.0000000000
     10035      3345  TIP3      H2             30.7055194676       23.7323051950       -7.2363899678  W2        3345            0.0000000000
     10036      3346  TIP3      OH2            21.7370794676       24.8030551950       -1.4778699678  W2        3346            0.0000000000
     10037      3346  TIP3      H1             21.6990194676       25.2032151950       -0.6091599678  W2        3346            0.0000000000
     10038      3346  TIP3      H2             21.2461894676       23.9862951950       -1.3875799678  W2        3346            0.0000000000
     10039      3347  TIP3      OH2            25.1028194676       22.1772851950      -14.6792699678  W2        3347            0.0000000000
     10040      3347  TIP3      H1             24.6718894676       21.7322951950      -13.9495299678  W2        3347            0.0000000000
     10041      3347  TIP3      H2             24.3846894676       22.5489151950      -15.1915199678  W2        3347            0.0000000000
     10042      3348  TIP3      OH2            18.3451594676       21.9192351950       -7.6273999678  W2        3348            0.0000000000
     10043      3348  TIP3      H1             18.9759294676       21.8904451950       -6.9080099678  W2        3348            0.0000000000
     10044      3348  TIP3      H2             18.7945894676       21.4941051950       -8.3578099678  W2        3348            0.0000000000
     10045      3349  TIP3      OH2            19.6193694676       22.6654351950      -12.2033599678  W2        3349            0.0000000000
     10046      3349  TIP3      H1             20.0935394676       23.2564251950      -12.7882699678  W2        3349            0.0000000000
     10047      3349  TIP3      H2             18.9020094676       23.1957251950      -11.8563499678  W2        3349            0.0000000000
     10048      3350  TIP3      OH2            29.7881794676       26.2039151950       -2.1307799678  W2        3350            0.0000000000
     10049      3350  TIP3      H1             30.1116594676       25.5728851950       -2.7737299678  W2        3350            0.0000000000
     10050      3350  TIP3      H2             29.3481094676       25.6691351950       -1.4700399678  W2        3350            0.0000000000
     10051      3351  TIP3      OH2            26.5654694676       22.1314651950       -7.3466599678  W2        3351            0.0000000000
     10052      3351  TIP3      H1             25.6545794676       22.1881451950       -7.0580599678  W2        3351            0.0000000000
     10053      3351  TIP3      H2             27.0707594676       22.0710151950       -6.5359399678  W2        3351            0.0000000000
     10054      3352  TIP3      OH2            21.3938094676       23.7600951950       -8.5198999678  W2        3352            0.0000000000
     10055      3352  TIP3      H1             20.5046094676       23.8596451950       -8.8599399678  W2        3352            0.0000000000
     10056      3352  TIP3      H2             21.6902994676       22.9183951950       -8.8661099678  W2        3352            0.0000000000
     10057      3353  TIP3      OH2            25.0469894676       23.7603551950      -10.8634399678  W2        3353            0.0000000000
     10058      3353  TIP3      H1             25.9785394676       23.8893551950      -10.6851299678  W2        3353            0.0000000000
     10059      3353  TIP3      H2             24.8320194676       24.4297851950      -11.5129699678  W2        3353            0.0000000000
     10060      3354  TIP3      OH2            30.9706594676       21.3660951950       -4.0824799678  W2        3354            0.0000000000
     10061      3354  TIP3      H1             30.2938194676       21.4974051950       -3.4185099678  W2        3354            0.0000000000
     10062      3354  TIP3      H2             30.4851494676       21.2110451950       -4.8927099678  W2        3354            0.0000000000
     10063      3355  TIP3      OH2            23.7210094676       24.9545751950      -13.2968299678  W2        3355            0.0000000000
     10064      3355  TIP3      H1             23.1785194676       24.5749551950      -13.9880699678  W2        3355            0.0000000000
     10065      3355  TIP3      H2             24.5544994676       25.1490451950      -13.7254199678  W2        3355            0.0000000000
     10066      3356  TIP3      OH2            34.2581694676       37.0376351950        2.1942800322  W2        3356            0.0000000000
     10067      3356  TIP3      H1             34.4580394676       37.4618251950        1.3598100322  W2        3356            0.0000000000
     10068      3356  TIP3      H2             34.9135394676       37.3814551950        2.8013200322  W2        3356            0.0000000000
     10069      3357  TIP3      OH2            21.8561494676       29.5117651950        1.8023300322  W2        3357            0.0000000000
     10070      3357  TIP3      H1             22.5883894676       29.7663551950        2.3637800322  W2        3357            0.0000000000
     10071      3357  TIP3      H2             21.0760194676       29.7163051950        2.3178700322  W2        3357            0.0000000000
     10072      3358  TIP3      OH2            27.8854394676       24.9187651950       -5.4596999678  W2        3358            0.0000000000
     10073      3358  TIP3      H1             28.4497794676       24.3724251950       -6.0067399678  W2        3358            0.0000000000
     10074      3358  TIP3      H2             27.7377794676       24.3969551950       -4.6709399678  W2        3358            0.0000000000
     10075      3359  TIP3      OH2            22.8874094676       21.0553751950       -9.0412199678  W2        3359            0.0000000000
     10076      3359  TIP3      H1             22.5703594676       20.1529051950       -9.0766799678  W2        3359            0.0000000000
     10077      3359  TIP3      H2             23.6688194676       21.0571151950       -9.5940599678  W2        3359            0.0000000000
     10078      3360  TIP3      OH2            26.5120294676       23.3073751950       -3.0456599678  W2        3360            0.0000000000
     10079      3360  TIP3      H1             25.6765594676       23.7613251950       -2.9354199678  W2        3360            0.0000000000
     10080      3360  TIP3      H2             27.0360894676       23.5832251950       -2.2936699678  W2        3360            0.0000000000
     10081      3361  TIP3      OH2            27.0562894676       29.5201451950      -11.3610199678  W2        3361            0.0000000000
     10082      3361  TIP3      H1             26.3113894676       29.0126751950      -11.6832299678  W2        3361            0.0000000000
     10083      3361  TIP3      H2             26.9220094676       29.5689451950      -10.4145399678  W2        3361            0.0000000000
     10084      3362  TIP3      OH2            34.2061794676       28.6529651950       -2.5742599678  W2        3362            0.0000000000
     10085      3362  TIP3      H1             34.8480594676       29.1095951950       -3.1180399678  W2        3362            0.0000000000
     10086      3362  TIP3      H2             33.3758694676       28.7662051950       -3.0368499678  W2        3362            0.0000000000
     10087      3363  TIP3      OH2            30.9539694676       22.3341351950      -13.1617599678  W2        3363            0.0000000000
     10088      3363  TIP3      H1             30.0153894676       22.4456951950      -13.3128799678  W2        3363            0.0000000000
     10089      3363  TIP3      H2             31.2511794676       23.1908251950      -12.8551899678  W2        3363            0.0000000000
     10090      3364  TIP3      OH2            28.5754994676       29.7044751950       -0.1241099678  W2        3364            0.0000000000
     10091      3364  TIP3      H1             28.2301094676       29.3227151950        0.6828500322  W2        3364            0.0000000000
     10092      3364  TIP3      H2             28.3755094676       30.6378351950       -0.0528199678  W2        3364            0.0000000000
     10093      3365  TIP3      OH2            31.6723194676       24.2014051950      -11.5010199678  W2        3365            0.0000000000
     10094      3365  TIP3      H1             32.5642194676       24.0639051950      -11.1818999678  W2        3365            0.0000000000
     10095      3365  TIP3      H2             31.7286794676       24.9920151950      -12.0376699678  W2        3365            0.0000000000
     10096      3366  TIP3      OH2            22.1811194676       28.8151451950       -5.5912299678  W2        3366            0.0000000000
     10097      3366  TIP3      H1             22.9258394676       28.8127151950       -6.1925799678  W2        3366            0.0000000000
     10098      3366  TIP3      H2             22.2587794676       27.9915251950       -5.1097199678  W2        3366            0.0000000000
     10099      3367  TIP3      OH2            29.1816994676       30.9785751950      -12.3355599678  W2        3367            0.0000000000
     10100      3367  TIP3      H1             28.8865394676       31.8053651950      -11.9540799678  W2        3367            0.0000000000
     10101      3367  TIP3      H2             28.4786994676       30.3592651950      -12.1394199678  W2        3367            0.0000000000
     10102      3368  TIP3      OH2            19.1890894676       27.2758351950       -0.2763799678  W2        3368            0.0000000000
     10103      3368  TIP3      H1             19.4119494676       26.8577951950        0.5553700322  W2        3368            0.0000000000
     10104      3368  TIP3      H2             18.5870994676       26.6633351950       -0.6990999678  W2        3368            0.0000000000
     10105      3369  TIP3      OH2            26.2055794676       26.7928251950        1.9365900322  W2        3369            0.0000000000
     10106      3369  TIP3      H1             25.9096594676       26.6271251950        1.0415000322  W2        3369            0.0000000000
     10107      3369  TIP3      H2             27.1370994676       26.5728551950        1.9259800322  W2        3369            0.0000000000
     10108      3370  TIP3      OH2            30.8258594676       32.1660251950       -0.1736099678  W2        3370            0.0000000000
     10109      3370  TIP3      H1             29.9252894676       32.3492851950       -0.4412199678  W2        3370            0.0000000000
     10110      3370  TIP3      H2             30.8599694676       32.4249551950        0.7472700322  W2        3370            0.0000000000
     10111      3371  TIP3      OH2            36.5571894676       24.4108151950      -11.8063499678  W2        3371            0.0000000000
     10112      3371  TIP3      H1             36.0028194676       24.0146151950      -12.4785999678  W2        3371            0.0000000000
     10113      3371  TIP3      H2             36.6575494676       25.3213351950      -12.0840199678  W2        3371            0.0000000000
     10114      3372  TIP3      OH2            36.5203894676       30.2109851950        1.0308000322  W2        3372            0.0000000000
     10115      3372  TIP3      H1             35.6692394676       30.4493651950        0.6634400322  W2        3372            0.0000000000
     10116      3372  TIP3      H2             37.1107294676       30.1943051950        0.2775100322  W2        3372            0.0000000000
     10117      3373  TIP3      OH2            34.8523594676       33.1968551950      -11.3411399678  W2        3373            0.0000000000
     10118      3373  TIP3      H1             34.4794694676       32.3712351950      -11.0320799678  W2        3373            0.0000000000
     10119      3373  TIP3      H2             35.1297094676       33.0137951950      -12.2387999678  W2        3373            0.0000000000
     10120      3374  TIP3      OH2            32.0127494676       28.0048051950       -4.3199499678  W2        3374            0.0000000000
     10121      3374  TIP3      H1             31.0844394676       27.7729951950       -4.3470199678  W2        3374            0.0000000000
     10122      3374  TIP3      H2             32.4638594676       27.2277851950       -4.6500699678  W2        3374            0.0000000000
     10123      3375  TIP3      OH2            24.5560594676       32.3329651950       -8.1870799678  W2        3375            0.0000000000
     10124      3375  TIP3      H1             25.0832794676       33.1064051950       -8.3871999678  W2        3375            0.0000000000
     10125      3375  TIP3      H2             23.6759094676       32.5578851950       -8.4886799678  W2        3375            0.0000000000
     10126      3376  TIP3      OH2            20.3108294676       27.1953751950      -13.5998399678  W2        3376            0.0000000000
     10127      3376  TIP3      H1             20.9268194676       27.8220951950      -13.2203599678  W2        3376            0.0000000000
     10128      3376  TIP3      H2             19.4490894676       27.5113551950      -13.3281899678  W2        3376            0.0000000000
     10129      3377  TIP3      OH2            25.9832894676       29.9959551950       -8.6106499678  W2        3377            0.0000000000
     10130      3377  TIP3      H1             25.7422894676       30.9213951950       -8.5691199678  W2        3377            0.0000000000
     10131      3377  TIP3      H2             25.2426494676       29.5370851950       -8.2142599678  W2        3377            0.0000000000
     10132      3378  TIP3      OH2            26.4979494676       34.1453151950       -2.2955399678  W2        3378            0.0000000000
     10133      3378  TIP3      H1             26.8604194676       34.9998751950       -2.5290999678  W2        3378            0.0000000000
     10134      3378  TIP3      H2             27.0294694676       33.8534751950       -1.5549099678  W2        3378            0.0000000000
     10135      3379  TIP3      OH2            24.6663694676       35.0177151950       -9.0654299678  W2        3379            0.0000000000
     10136      3379  TIP3      H1             23.7164194676       35.1234551950       -9.0140999678  W2        3379            0.0000000000
     10137      3379  TIP3      H2             25.0181794676       35.8384551950       -8.7206799678  W2        3379            0.0000000000
     10138      3380  TIP3      OH2            30.0420294676       30.2443851950       -2.5949799678  W2        3380            0.0000000000
     10139      3380  TIP3      H1             29.6161594676       30.0165551950       -1.7685799678  W2        3380            0.0000000000
     10140      3380  TIP3      H2             30.6226094676       29.5055651950       -2.7774499678  W2        3380            0.0000000000
     10141      3381  TIP3      OH2            32.2449194676       31.1734351950      -13.5210799678  W2        3381            0.0000000000
     10142      3381  TIP3      H1             32.5982294676       30.7934151950      -12.7167299678  W2        3381            0.0000000000
     10143      3381  TIP3      H2             31.2962694676       31.0799151950      -13.4341499678  W2        3381            0.0000000000
     10144      3382  TIP3      OH2            32.7004494676       34.7963351950       -0.1254999678  W2        3382            0.0000000000
     10145      3382  TIP3      H1             32.0987694676       34.2406251950       -0.6208699678  W2        3382            0.0000000000
     10146      3382  TIP3      H2             32.9818194676       35.4633151950       -0.7517599678  W2        3382            0.0000000000
     10147      3383  TIP3      OH2            36.7483594676       35.6526851950      -13.3200599678  W2        3383            0.0000000000
     10148      3383  TIP3      H1             37.4921494676       36.2387351950      -13.4598999678  W2        3383            0.0000000000
     10149      3383  TIP3      H2             36.0541694676       36.2212651950      -12.9868199678  W2        3383            0.0000000000
     10150      3384  TIP3      OH2            20.8230394676       22.0291051950       -0.7182399678  W2        3384            0.0000000000
     10151      3384  TIP3      H1             19.9302694676       22.3676451950       -0.7858399678  W2        3384            0.0000000000
     10152      3384  TIP3      H2             20.7243194676       21.1737151950       -0.3001599678  W2        3384            0.0000000000
     10153      3385  TIP3      OH2            33.1108494676       29.8456351950      -11.2942899678  W2        3385            0.0000000000
     10154      3385  TIP3      H1             32.8336094676       29.1175651950      -10.7381799678  W2        3385            0.0000000000
     10155      3385  TIP3      H2             34.0381494676       29.9648351950      -11.0890299678  W2        3385            0.0000000000
     10156      3386  TIP3      OH2            20.4742394676       33.8335451950       -2.2832999678  W2        3386            0.0000000000
     10157      3386  TIP3      H1             20.6912694676       32.9017851950       -2.3143299678  W2        3386            0.0000000000
     10158      3386  TIP3      H2             20.7205894676       34.1080451950       -1.4000199678  W2        3386            0.0000000000
     10159      3387  TIP3      OH2            26.3356994676       32.2850451950      -15.0740799678  W2        3387            0.0000000000
     10160      3387  TIP3      H1             26.5746794676       31.5368551950      -15.6211899678  W2        3387            0.0000000000
     10161      3387  TIP3      H2             26.0668294676       31.8972151950      -14.2412999678  W2        3387            0.0000000000
     10162      3388  TIP3      OH2            25.2727594676       31.8554251950      -12.6178199678  W2        3388            0.0000000000
     10163      3388  TIP3      H1             25.4195594676       31.3354051950      -11.8277299678  W2        3388            0.0000000000
     10164      3388  TIP3      H2             25.2699294676       32.7621851950      -12.3112299678  W2        3388            0.0000000000
     10165      3389  TIP3      OH2            21.7258694676       29.1077551950      -12.1072799678  W2        3389            0.0000000000
     10166      3389  TIP3      H1             21.0397994676       29.4600051950      -11.5403099678  W2        3389            0.0000000000
     10167      3389  TIP3      H2             22.2486594676       29.8707151950      -12.3538499678  W2        3389            0.0000000000
     10168      3390  TIP3      OH2            29.5573794676       21.7701351950       -1.8283799678  W2        3390            0.0000000000
     10169      3390  TIP3      H1             30.2561694676       21.8440051950       -1.1784099678  W2        3390            0.0000000000
     10170      3390  TIP3      H2             29.1765194676       20.9056351950       -1.6740899678  W2        3390            0.0000000000
     10171      3391  TIP3      OH2            30.3418694676       21.4223051950      -10.7311499678  W2        3391            0.0000000000
     10172      3391  TIP3      H1             30.5616994676       21.8938451950      -11.5346099678  W2        3391            0.0000000000
     10173      3391  TIP3      H2             30.9002694676       21.8165651950      -10.0610899678  W2        3391            0.0000000000
     10174      3392  TIP3      OH2            28.0104794676       33.5527851950      -11.8683999678  W2        3392            0.0000000000
     10175      3392  TIP3      H1             27.1940894676       34.0497551950      -11.8159699678  W2        3392            0.0000000000
     10176      3392  TIP3      H2             28.5401094676       34.0281351950      -12.5085199678  W2        3392            0.0000000000
     10177      3393  TIP3      OH2            27.5418594676       23.1501851950       -9.8963099678  W2        3393            0.0000000000
     10178      3393  TIP3      H1             28.3541194676       23.6545051950       -9.8501399678  W2        3393            0.0000000000
     10179      3393  TIP3      H2             27.2971594676       23.0051551950       -8.9823499678  W2        3393            0.0000000000
     10180      3394  TIP3      OH2            28.0774994676       24.1364551950       -0.7116499678  W2        3394            0.0000000000
     10181      3394  TIP3      H1             28.1965294676       24.7099951950        0.0453900322  W2        3394            0.0000000000
     10182      3394  TIP3      H2             28.7329594676       23.4483951950       -0.5968699678  W2        3394            0.0000000000
     10183      3395  TIP3      OH2            28.4255294676       20.2314851950       -8.9581999678  W2        3395            0.0000000000
     10184      3395  TIP3      H1             28.0788794676       20.8485451950       -8.3137699678  W2        3395            0.0000000000
     10185      3395  TIP3      H2             29.0842194676       20.7320551950       -9.4396499678  W2        3395            0.0000000000
     10186      3396  TIP3      OH2            25.3487894676       34.5965051950      -11.8867099678  W2        3396            0.0000000000
     10187      3396  TIP3      H1             25.5096594676       35.3962551950      -12.3874499678  W2        3396            0.0000000000
     10188      3396  TIP3      H2             25.1515694676       34.9031051950      -11.0016499678  W2        3396            0.0000000000
     10189      3397  TIP3      OH2            24.0832294676       21.2944251950      -12.2709499678  W2        3397            0.0000000000
     10190      3397  TIP3      H1             23.9997094676       22.1827351950      -11.9243099678  W2        3397            0.0000000000
     10191      3397  TIP3      H2             24.9732594676       21.0290951950      -12.0392699678  W2        3397            0.0000000000
     10192      3398  TIP3      OH2            34.2820794676       22.0434851950        0.1233200322  W2        3398            0.0000000000
     10193      3398  TIP3      H1             33.3656594676       22.3056551950        0.0356900322  W2        3398            0.0000000000
     10194      3398  TIP3      H2             34.6175794676       22.0403851950       -0.7731499678  W2        3398            0.0000000000
     10195      3399  TIP3      OH2            32.8841794676       25.7935851950       -5.7809499678  W2        3399            0.0000000000
     10196      3399  TIP3      H1             32.0866194676       25.3786051950       -6.1094499678  W2        3399            0.0000000000
     10197      3399  TIP3      H2             33.3292894676       25.1029551950       -5.2898999678  W2        3399            0.0000000000
     10198      3400  TIP3      OH2            22.3417594676       31.7216451950      -13.2104999678  W2        3400            0.0000000000
     10199      3400  TIP3      H1             22.9339094676       32.4211251950      -12.9342599678  W2        3400            0.0000000000
     10200      3400  TIP3      H2             22.8010594676       31.2885951950      -13.9300399678  W2        3400            0.0000000000
     10201      3401  TIP3      OH2            20.6576794676       24.3859451950      -14.0945599678  W2        3401            0.0000000000
     10202      3401  TIP3      H1             20.6129394676       25.3252551950      -13.9158599678  W2        3401            0.0000000000
     10203      3401  TIP3      H2             19.7699994676       24.1504351950      -14.3643499678  W2        3401            0.0000000000
     10204      3402  TIP3      OH2            33.9706394676       35.0498351950       -4.1585999678  W2        3402            0.0000000000
     10205      3402  TIP3      H1             33.8150694676       35.7282751950       -4.8156699678  W2        3402            0.0000000000
     10206      3402  TIP3      H2             34.9032794676       35.1217651950       -3.9555399678  W2        3402            0.0000000000
     10207      3403  TIP3      OH2            21.4658794676       19.1676051950       -5.4214599678  W2        3403            0.0000000000
     10208      3403  TIP3      H1             21.2368594676       19.2268551950       -6.3489599678  W2        3403            0.0000000000
     10209      3403  TIP3      H2             21.0232194676       18.3761551950       -5.1150499678  W2        3403            0.0000000000
     10210      3404  TIP3      OH2            20.3962094676       33.1083151950       -9.2608799678  W2        3404            0.0000000000
     10211      3404  TIP3      H1             19.5640694676       33.5805851950       -9.2337399678  W2        3404            0.0000000000
     10212      3404  TIP3      H2             20.9420394676       33.6180751950       -9.8595699678  W2        3404            0.0000000000
     10213      3405  TIP3      OH2            19.6845794676       35.7206851950        2.0689200322  W2        3405            0.0000000000
     10214      3405  TIP3      H1             20.2247994676       35.5040851950        2.8288400322  W2        3405            0.0000000000
     10215      3405  TIP3      H2             19.2033794676       34.9152851950        1.8791700322  W2        3405            0.0000000000
     10216      3406  TIP3      OH2            24.2819194676       34.6401251950        3.6893400322  W2        3406            0.0000000000
     10217      3406  TIP3      H1             25.0496394676       34.1812051950        4.0302600322  W2        3406            0.0000000000
     10218      3406  TIP3      H2             24.2605394676       34.4141051950        2.7594600322  W2        3406            0.0000000000
     10219      3407  TIP3      OH2            28.3738794676       34.1481851950      -14.9354799678  W2        3407            0.0000000000
     10220      3407  TIP3      H1             27.7299794676       33.5170451950      -14.6141099678  W2        3407            0.0000000000
     10221      3407  TIP3      H2             29.1357094676       33.6169851950      -15.1671299678  W2        3407            0.0000000000
     10222      3408  TIP3      OH2            30.8587894676       33.0202351950        2.4184900322  W2        3408            0.0000000000
     10223      3408  TIP3      H1             30.5077394676       32.1635351950        2.6615300322  W2        3408            0.0000000000
     10224      3408  TIP3      H2             31.5851094676       33.1629051950        3.0253900322  W2        3408            0.0000000000
     10225      3409  TIP3      OH2            32.9781694676       33.9651751950      -14.7016799678  W2        3409            0.0000000000
     10226      3409  TIP3      H1             33.2612094676       33.1706951950      -14.2489899678  W2        3409            0.0000000000
     10227      3409  TIP3      H2             33.7179594676       34.1982751950      -15.2625699678  W2        3409            0.0000000000
     10228      3410  TIP3      OH2            19.5915294676       29.5310951950        3.0233500322  W2        3410            0.0000000000
     10229      3410  TIP3      H1             19.7355794676       28.6291651950        2.7370200322  W2        3410            0.0000000000
     10230      3410  TIP3      H2             18.8192694676       29.8173051950        2.5355800322  W2        3410            0.0000000000
     10231      3411  TIP3      OH2            23.9328994676       29.8746651950      -14.8441899678  W2        3411            0.0000000000
     10232      3411  TIP3      H1             23.9973094676       29.0806251950      -14.3135499678  W2        3411            0.0000000000
     10233      3411  TIP3      H2             24.5858194676       29.7559451950      -15.5339899678  W2        3411            0.0000000000
     10234      3412  TIP3      OH2            26.2471394676       29.5009051950        2.4559900322  W2        3412            0.0000000000
     10235      3412  TIP3      H1             25.9185194676       29.7717151950        1.5987300322  W2        3412            0.0000000000
     10236      3412  TIP3      H2             26.3989594676       28.5598851950        2.3684900322  W2        3412            0.0000000000
     10237      3413  TIP3      OH2            29.2852394676       30.9218351950      -15.1083899678  W2        3413            0.0000000000
     10238      3413  TIP3      H1             29.0166494676       31.1020451950      -14.2074999678  W2        3413            0.0000000000
     10239      3413  TIP3      H2             29.0787994676       29.9964551950      -15.2398099678  W2        3413            0.0000000000
     10240      3414  TIP3      OH2            31.9816594676       29.4166351950       -0.1607799678  W2        3414            0.0000000000
     10241      3414  TIP3      H1             32.7271394676       30.0050051950       -0.2803799678  W2        3414            0.0000000000
     10242      3414  TIP3      H2             31.2243394676       29.9986051950       -0.0974699678  W2        3414            0.0000000000
     10243      3415  TIP3      OH2            20.4241794676       26.7314251950        2.4432800322  W2        3415            0.0000000000
     10244      3415  TIP3      H1             20.8322994676       25.8740851950        2.3223400322  W2        3415            0.0000000000
     10245      3415  TIP3      H2             20.1639394676       26.7455551950        3.3643100322  W2        3415            0.0000000000
     10246      3416  TIP3      OH2            25.0822794676       27.8472851950      -12.5383899678  W2        3416            0.0000000000
     10247      3416  TIP3      H1             24.6224794676       27.3631151950      -11.8525399678  W2        3416            0.0000000000
     10248      3416  TIP3      H2             25.3371494676       27.1788251950      -13.1743399678  W2        3416            0.0000000000
     10249      3417  TIP3      OH2            24.3712094676       25.7399951950       -0.1824299678  W2        3417            0.0000000000
     10250      3417  TIP3      H1             23.7528194676       26.4146551950        0.0980400322  W2        3417            0.0000000000
     10251      3417  TIP3      H2             24.7153294676       26.0613851950       -1.0158099678  W2        3417            0.0000000000
     10252      3418  TIP3      OH2            26.1533194676       26.0904651950      -14.2760699678  W2        3418            0.0000000000
     10253      3418  TIP3      H1             25.9728194676       25.9355851950      -15.2032399678  W2        3418            0.0000000000
     10254      3418  TIP3      H2             27.1033694676       26.1983351950      -14.2312799678  W2        3418            0.0000000000
     10255      3419  TIP3      OH2            29.3910294676       28.2115251950        3.0950500322  W2        3419            0.0000000000
     10256      3419  TIP3      H1             30.3441494676       28.2954351950        3.0676500322  W2        3419            0.0000000000
     10257      3419  TIP3      H2             29.2304894676       27.4997051950        3.7145400322  W2        3419            0.0000000000
     10258      3420  TIP3      OH2            35.5431494676       28.4448851950      -14.8302599678  W2        3420            0.0000000000
     10259      3420  TIP3      H1             35.2696294676       28.0204351950      -15.6434299678  W2        3420            0.0000000000
     10260      3420  TIP3      H2             35.5825594676       29.3763351950      -15.0472199678  W2        3420            0.0000000000
     10261      3421  TIP3      OH2            24.7105794676       23.0950751950        0.8998800322  W2        3421            0.0000000000
     10262      3421  TIP3      H1             24.8606694676       22.3662051950        0.2978500322  W2        3421            0.0000000000
     10263      3421  TIP3      H2             24.7128194676       23.8722451950        0.3411000322  W2        3421            0.0000000000
     10264      3422  TIP3      OH2            25.1231494676       21.4646551950       -1.6073799678  W2        3422            0.0000000000
     10265      3422  TIP3      H1             25.6588994676       21.9163251950       -2.2594499678  W2        3422            0.0000000000
     10266      3422  TIP3      H2             24.2711094676       21.3566351950       -2.0299699678  W2        3422            0.0000000000
     10267      3423  TIP3      OH2            26.7049894676       26.9042751950       -1.3678599678  W2        3423            0.0000000000
     10268      3423  TIP3      H1             27.4554694676       26.7480251950       -1.9410799678  W2        3423            0.0000000000
     10269      3423  TIP3      H2             26.3658194676       27.7559351950       -1.6433099678  W2        3423            0.0000000000
     10270      3424  TIP3      OH2            31.1206094676       24.7194551950        3.6606700322  W2        3424            0.0000000000
     10271      3424  TIP3      H1             31.3127394676       23.7883951950        3.5491200322  W2        3424            0.0000000000
     10272      3424  TIP3      H2             31.9782394676       25.1444051950        3.6502100322  W2        3424            0.0000000000
     10273      3425  TIP3      OH2            32.4373294676       27.5079751950        1.7379400322  W2        3425            0.0000000000
     10274      3425  TIP3      H1             32.1558294676       28.2174351950        1.1603200322  W2        3425            0.0000000000
     10275      3425  TIP3      H2             33.3797594676       27.4352751950        1.5870600322  W2        3425            0.0000000000
     10276      3426  TIP3      OH2            23.1892094676       24.2934251950        2.8114400322  W2        3426            0.0000000000
     10277      3426  TIP3      H1             22.4221094676       23.7609051950        2.6012000322  W2        3426            0.0000000000
     10278      3426  TIP3      H2             23.8681094676       23.9834651950        2.2120700322  W2        3426            0.0000000000
     10279      3427  TIP3      OH2            25.9286994676       18.9212251950       -1.1760199678  W2        3427            0.0000000000
     10280      3427  TIP3      H1             25.8306594676       19.8675451950       -1.2813999678  W2        3427            0.0000000000
     10281      3427  TIP3      H2             25.1863194676       18.5486051950       -1.6516699678  W2        3427            0.0000000000
     10282      3428  TIP3      OH2            27.1927494676       23.2427651950        2.3878200322  W2        3428            0.0000000000
     10283      3428  TIP3      H1             26.9572894676       23.0234351950        3.2893100322  W2        3428            0.0000000000
     10284      3428  TIP3      H2             26.4094394676       23.0358851950        1.8780700322  W2        3428            0.0000000000
     10285      3429  TIP3      OH2            29.9084094676       22.3701151950        1.4631700322  W2        3429            0.0000000000
     10286      3429  TIP3      H1             28.9609494676       22.4020851950        1.5955000322  W2        3429            0.0000000000
     10287      3429  TIP3      H2             30.2210794676       21.7448251950        2.1169900322  W2        3429            0.0000000000
     10288      3430  TIP3      OH2            31.5425594676       21.0042251950        3.4683600322  W2        3430            0.0000000000
     10289      3430  TIP3      H1             31.4457394676       20.0519551950        3.4625500322  W2        3430            0.0000000000
     10290      3430  TIP3      H2             31.2208694676       21.2729051950        4.3289100322  W2        3430            0.0000000000
     10291      3431  TIP3      OH2            21.3694894676       22.2138051950        2.5159100322  W2        3431            0.0000000000
     10292      3431  TIP3      H1             21.5812294676       21.5074151950        1.9056600322  W2        3431            0.0000000000
     10293      3431  TIP3      H2             21.2582394676       21.7764051950        3.3600300322  W2        3431            0.0000000000
     10294      3432  TIP3      OH2            26.1505094676       18.2149651950        1.4952600322  W2        3432            0.0000000000
     10295      3432  TIP3      H1             26.8623494676       17.5751851950        1.4811700322  W2        3432            0.0000000000
     10296      3432  TIP3      H2             26.0495494676       18.4817951950        0.5815700322  W2        3432            0.0000000000
     10297      3433  TIP3      OH2            26.5042594676       19.8978051950        3.5488900322  W2        3433            0.0000000000
     10298      3433  TIP3      H1             26.3724794676       19.4221851950        2.7287400322  W2        3433            0.0000000000
     10299      3433  TIP3      H2             25.9049994676       20.6421651950        3.4936000322  W2        3433            0.0000000000
     10300      3434  TIP3      OH2            26.0504894676       36.7808351950      -13.2747099678  W2        3434            0.0000000000
     10301      3434  TIP3      H1             26.9835594676       36.9387051950      -13.1308699678  W2        3434            0.0000000000
     10302      3434  TIP3      H2             25.7863694676       37.4561351950      -13.8995599678  W2        3434            0.0000000000
     10303      3435  TIP3      OH2            19.6189794676       31.4172151950      -13.7918999678  W2        3435            0.0000000000
     10304      3435  TIP3      H1             20.5328994676       31.4961051950      -13.5185099678  W2        3435            0.0000000000
     10305      3435  TIP3      H2             19.6262894676       30.7301751950      -14.4583399678  W2        3435            0.0000000000
     10306      3436  TIP3      OH2            18.2680394676       36.8100651950       -8.7145099678  W2        3436            0.0000000000
     10307      3436  TIP3      H1             17.6207494676       36.3482351950       -9.2473899678  W2        3436            0.0000000000
     10308      3436  TIP3      H2             18.6224994676       36.1383951950       -8.1318899678  W2        3436            0.0000000000
     10309      3437  TIP3      OH2            19.1379594676       34.8907651950       -6.9098899678  W2        3437            0.0000000000
     10310      3437  TIP3      H1             18.8036394676       34.0104951950       -6.7378699678  W2        3437            0.0000000000
     10311      3437  TIP3      H2             19.3601994676       35.2362651950       -6.0453299678  W2        3437            0.0000000000
     10312      3438  TIP3      OH2            36.6864394676       35.7004051950       -3.9294099678  W2        3438            0.0000000000
     10313      3438  TIP3      H1             36.6651094676       35.8852451950       -2.9904699678  W2        3438            0.0000000000
     10314      3438  TIP3      H2             37.3770594676       36.2688051950       -4.2702699678  W2        3438            0.0000000000
     10315      3439  TIP3      OH2            36.2497294676       35.2675151950       -1.0074999678  W2        3439            0.0000000000
     10316      3439  TIP3      H1             35.7625994676       34.5319251950       -1.3787599678  W2        3439            0.0000000000
     10317      3439  TIP3      H2             36.7989994676       34.8739051950       -0.3295599678  W2        3439            0.0000000000
     10318      3440  TIP3      OH2            34.7004594676       31.0573251950        3.6305300322  W2        3440            0.0000000000
     10319      3440  TIP3      H1             33.8345694676       30.9522951950        4.0247600322  W2        3440            0.0000000000
     10320      3440  TIP3      H2             35.0770494676       31.8156551950        4.0770000322  W2        3440            0.0000000000
     10321      3441  TIP3      OH2            36.0014294676       29.3136951950      -10.8552199678  W2        3441            0.0000000000
     10322      3441  TIP3      H1             36.8515694676       29.7347851950      -10.7280599678  W2        3441            0.0000000000
     10323      3441  TIP3      H2             36.0069394676       28.5737051950      -10.2480799678  W2        3441            0.0000000000
     10324      3442  TIP3      OH2            36.3959894676       27.3674351950       -9.0316499678  W2        3442            0.0000000000
     10325      3442  TIP3      H1             35.6694494676       26.8876951950       -8.6338899678  W2        3442            0.0000000000
     10326      3442  TIP3      H2             36.9773194676       27.5729051950       -8.2994899678  W2        3442            0.0000000000
     10327      3443  TIP3      OH2            36.1551094676       30.1521851950       -4.0838899678  W2        3443            0.0000000000
     10328      3443  TIP3      H1             36.9885294676       29.7741851950       -4.3645299678  W2        3443            0.0000000000
     10329      3443  TIP3      H2             36.2671394676       31.0953051950       -4.2029799678  W2        3443            0.0000000000
     10330      3444  TIP3      OH2            34.6413394676       33.0299351950       -1.7770499678  W2        3444            0.0000000000
     10331      3444  TIP3      H1             33.9938694676       33.3550851950       -1.1515299678  W2        3444            0.0000000000
     10332      3444  TIP3      H2             34.1237394676       32.5897051950       -2.4512199678  W2        3444            0.0000000000
     10333      3445  TIP3      OH2            36.6642994676       27.2682851950      -12.6405199678  W2        3445            0.0000000000
     10334      3445  TIP3      H1             36.1424094676       27.6246951950      -13.3594299678  W2        3445            0.0000000000
     10335      3445  TIP3      H2             36.6312194676       27.9430651950      -11.9624299678  W2        3445            0.0000000000
     10336      3446  TIP3      OH2            35.0131994676       24.5078451950      -14.0898099678  W2        3446            0.0000000000
     10337      3446  TIP3      H1             35.1096394676       25.1745451950      -14.7698399678  W2        3446            0.0000000000
     10338      3446  TIP3      H2             34.8731594676       23.6924751950      -14.5712599678  W2        3446            0.0000000000
     10339      3447  TIP3      OH2            34.1826694676       25.8880851950       -8.4687799678  W2        3447            0.0000000000
     10340      3447  TIP3      H1             34.0325494676       24.9429451950       -8.4889999678  W2        3447            0.0000000000
     10341      3447  TIP3      H2             33.8291194676       26.1692251950       -7.6248699678  W2        3447            0.0000000000
     10342      3448  TIP3      OH2            19.2179094676       27.9663051950       -4.4583999678  W2        3448            0.0000000000
     10343      3448  TIP3      H1             19.4021994676       27.8844751950       -5.3941099678  W2        3448            0.0000000000
     10344      3448  TIP3      H2             20.0671994676       27.8420051950       -4.0347599678  W2        3448            0.0000000000
     10345      3449  TIP3      OH2            35.0389594676       27.8584151950        1.1700500322  W2        3449            0.0000000000
     10346      3449  TIP3      H1             35.6216894676       27.1236451950        1.3617700322  W2        3449            0.0000000000
     10347      3449  TIP3      H2             35.6028894676       28.6304451950        1.2166300322  W2        3449            0.0000000000
     10348      3450  TIP3      OH2            36.5356694676       25.7609951950        1.8545900322  W2        3450            0.0000000000
     10349      3450  TIP3      H1             35.6723394676       25.3822051950        1.6890600322  W2        3450            0.0000000000
     10350      3450  TIP3      H2             37.1400394676       25.0224751950        1.7801700322  W2        3450            0.0000000000
     10351      3451  TIP3      OH2            34.2605794676       21.9158251950      -14.9722599678  W2        3451            0.0000000000
     10352      3451  TIP3      H1             34.8711594676       21.5445051950      -14.3354399678  W2        3451            0.0000000000
     10353      3451  TIP3      H2             33.4237294676       21.4945151950      -14.7762599678  W2        3451            0.0000000000
     10354      3452  TIP3      OH2            33.8931494676       23.4706651950      -10.0062699678  W2        3452            0.0000000000
     10355      3452  TIP3      H1             34.1728594676       22.5637051950       -9.8820999678  W2        3452            0.0000000000
     10356      3452  TIP3      H2             34.6523194676       23.9048151950      -10.3953499678  W2        3452            0.0000000000
     10357      3453  TIP3      OH2            34.5049794676       24.0524051950       -4.5703799678  W2        3453            0.0000000000
     10358      3453  TIP3      H1             35.4377794676       24.2643951950       -4.6047799678  W2        3453            0.0000000000
     10359      3453  TIP3      H2             34.2697294676       24.1536151950       -3.6480799678  W2        3453            0.0000000000
     10360      3454  TIP3      OH2            34.5341694676       24.7889351950       -1.7944399678  W2        3454            0.0000000000
     10361      3454  TIP3      H1             33.6912994676       25.0569751950       -1.4284599678  W2        3454            0.0000000000
     10362      3454  TIP3      H2             34.9765994676       25.6111251950       -2.0053299678  W2        3454            0.0000000000
     10363      3455  TIP3      OH2            18.8153894676       23.2368051950        1.6824800322  W2        3455            0.0000000000
     10364      3455  TIP3      H1             19.7348794676       23.1146351950        1.9187900322  W2        3455            0.0000000000
     10365      3455  TIP3      H2             18.3658394676       22.4867751950        2.0718300322  W2        3455            0.0000000000
     10366      3456  TIP3      OH2            36.8173294676       18.7689551950        3.5590600322  W2        3456            0.0000000000
     10367      3456  TIP3      H1             37.1670294676       18.1153051950        2.9535300322  W2        3456            0.0000000000
     10368      3456  TIP3      H2             36.9642794676       19.6063651950        3.1193200322  W2        3456            0.0000000000
     10369      3457  TIP3      OH2            34.5066294676       20.7335951950       -9.9580699678  W2        3457            0.0000000000
     10370      3457  TIP3      H1             34.6891294676       20.2847451950       -9.1325699678  W2        3457            0.0000000000
     10371      3457  TIP3      H2             33.9069194676       20.1490351950      -10.4216099678  W2        3457            0.0000000000
     10372      3458  TIP3      OH2            20.0366394676       21.5489651950       -5.4262299678  W2        3458            0.0000000000
     10373      3458  TIP3      H1             20.4817994676       20.7572151950       -5.1242599678  W2        3458            0.0000000000
     10374      3458  TIP3      H2             20.5029394676       22.2654851950       -4.9956699678  W2        3458            0.0000000000
     10375      3459  TIP3      OH2            18.3406694676       24.5482651950       -4.3572099678  W2        3459            0.0000000000
     10376      3459  TIP3      H1             18.8326494676       24.3273151950       -5.1480099678  W2        3459            0.0000000000
     10377      3459  TIP3      H2             18.7027594676       25.3886051950       -4.0762599678  W2        3459            0.0000000000
     10378      3460  TIP3      OH2            36.3370494676       20.8784151950        1.9081900322  W2        3460            0.0000000000
     10379      3460  TIP3      H1             35.4196194676       21.1491251950        1.8725400322  W2        3460            0.0000000000
     10380      3460  TIP3      H2             36.4599894676       20.3432551950        1.1241600322  W2        3460            0.0000000000
     10381      3461  TIP3      OH2            36.3732494676       20.8014051950      -13.4300399678  W2        3461            0.0000000000
     10382      3461  TIP3      H1             36.7855094676       20.0799751950      -13.9052399678  W2        3461            0.0000000000
     10383      3461  TIP3      H2             37.0548994676       21.4708651950      -13.3716099678  W2        3461            0.0000000000
     10384      3462  TIP3      OH2            18.6543194676       20.8061751950      -10.3029699678  W2        3462            0.0000000000
     10385      3462  TIP3      H1             17.7291594676       21.0148351950      -10.4324199678  W2        3462            0.0000000000
     10386      3462  TIP3      H2             19.1083094676       21.2902551950      -10.9927399678  W2        3462            0.0000000000
     10387      3463  TIP3      OH2            33.4250394676       35.7903451950       -8.3572299678  W2        3463            0.0000000000
     10388      3463  TIP3      H1             34.0773294676       35.4425551950       -8.9653199678  W2        3463            0.0000000000
     10389      3463  TIP3      H2             33.9354194676       36.2786651950       -7.7112599678  W2        3463            0.0000000000
     10390      3464  TIP3      OH2            18.6178594676       19.5440751950       -1.9587199678  W2        3464            0.0000000000
     10391      3464  TIP3      H1             17.9529094676       19.2981051950       -1.3156299678  W2        3464            0.0000000000
     10392      3464  TIP3      H2             18.1749894676       20.1661151950       -2.5359199678  W2        3464            0.0000000000
     10393      3465  TIP3      OH2            20.8097894676       32.7194851950        2.1858600322  W2        3465            0.0000000000
     10394      3465  TIP3      H1             19.9890394676       32.8941351950        1.7253300322  W2        3465            0.0000000000
     10395      3465  TIP3      H2             20.5575694676       32.6459551950        3.1063000322  W2        3465            0.0000000000
     10396      3466  TIP3      OH2            23.7640794676       33.6936051950       -1.5557399678  W2        3466            0.0000000000
     10397      3466  TIP3      H1             23.3391894676       34.5034551950       -1.8382799678  W2        3466            0.0000000000
     10398      3466  TIP3      H2             24.6683594676       33.7790151950       -1.8577599678  W2        3466            0.0000000000
     10399      3467  TIP3      OH2            28.0752194676       35.0926051950        1.4036300322  W2        3467            0.0000000000
     10400      3467  TIP3      H1             28.2599694676       34.7592151950        2.2816600322  W2        3467            0.0000000000
     10401      3467  TIP3      H2             28.9216694676       35.4024651950        1.0815500322  W2        3467            0.0000000000
     10402      3468  TIP3      OH2            30.4202594676       36.3784951950        0.6477700322  W2        3468            0.0000000000
     10403      3468  TIP3      H1             31.0971494676       35.7457251950        0.4076900322  W2        3468            0.0000000000
     10404      3468  TIP3      H2             30.7421394676       36.7795451950        1.4551000322  W2        3468            0.0000000000
     10405      3469  TIP3      OH2            35.3376394676       18.9680451950       -0.2727299678  W2        3469            0.0000000000
     10406      3469  TIP3      H1             34.5249894676       19.2930751950       -0.6602599678  W2        3469            0.0000000000
     10407      3469  TIP3      H2             35.5704894676       18.2078951950       -0.8058199678  W2        3469            0.0000000000
     10408      3470  TIP3      OH2            21.1657494676       36.9499951950       -1.5082099678  W2        3470            0.0000000000
     10409      3470  TIP3      H1             20.4453894676       37.3900951950       -1.9594399678  W2        3470            0.0000000000
     10410      3470  TIP3      H2             20.8001494676       36.6994651950       -0.6598099678  W2        3470            0.0000000000
     10411      3471  TIP3      OH2            23.6330094676       36.5503851950       -2.4784899678  W2        3471            0.0000000000
     10412      3471  TIP3      H1             22.7682294676       36.6222351950       -2.0744799678  W2        3471            0.0000000000
     10413      3471  TIP3      H2             23.5779094676       37.0971151950       -3.2622399678  W2        3471            0.0000000000
     10414      3472  TIP3      OH2            28.3435694676       36.4382751950       -3.3028899678  W2        3472            0.0000000000
     10415      3472  TIP3      H1             27.8869694676       36.9672451950       -3.9570499678  W2        3472            0.0000000000
     10416      3472  TIP3      H2             28.5063694676       37.0414151950       -2.5776599678  W2        3472            0.0000000000
     10417      3473  TIP3      OH2            30.6711994676       35.3162351950       -2.3578599678  W2        3473            0.0000000000
     10418      3473  TIP3      H1             29.7665694676       35.4812551950       -2.6236499678  W2        3473            0.0000000000
     10419      3473  TIP3      H2             31.1000594676       36.1694551950       -2.4235199678  W2        3473            0.0000000000
     10420      3474  TIP3      OH2            33.2753894676       36.8861451950       -2.0630799678  W2        3474            0.0000000000
     10421      3474  TIP3      H1             33.0935894676       37.8020351950       -2.2735899678  W2        3474            0.0000000000
     10422      3474  TIP3      H2             33.4521694676       36.4758551950       -2.9096199678  W2        3474            0.0000000000
     10423      3475  TIP3      OH2            20.5805594676       35.5732451950       -4.5980299678  W2        3475            0.0000000000
     10424      3475  TIP3      H1             20.5621594676       35.1477551950       -3.7407999678  W2        3475            0.0000000000
     10425      3475  TIP3      H2             21.3853494676       35.2547451950       -5.0068099678  W2        3475            0.0000000000
     10426      3476  TIP3      OH2            22.7218694676       34.2831151950       -5.9430399678  W2        3476            0.0000000000
     10427      3476  TIP3      H1             22.5029394676       33.3668551950       -5.7734399678  W2        3476            0.0000000000
     10428      3476  TIP3      H2             23.5460894676       34.4231551950       -5.4768999678  W2        3476            0.0000000000
     10429      3477  TIP3      OH2            25.2591194676       34.7530451950       -5.0942399678  W2        3477            0.0000000000
     10430      3477  TIP3      H1             25.4716894676       33.8649451950       -5.3811499678  W2        3477            0.0000000000
     10431      3477  TIP3      H2             25.3236294676       34.7188151950       -4.1398399678  W2        3477            0.0000000000
     10432      3478  TIP3      OH2            28.7674894676       20.4171051950       -5.9499099678  W2        3478            0.0000000000
     10433      3478  TIP3      H1             28.0931694676       19.7876651950       -5.6943299678  W2        3478            0.0000000000
     10434      3478  TIP3      H2             29.3314094676       19.9329951950       -6.5531199678  W2        3478            0.0000000000
     10435      3479  TIP3      OH2            33.9102094676       18.5245051950       -5.8371999678  W2        3479            0.0000000000
     10436      3479  TIP3      H1             34.5139694676       19.0720451950       -6.3390999678  W2        3479            0.0000000000
     10437      3479  TIP3      H2             33.0404094676       18.8435451950       -6.0777899678  W2        3479            0.0000000000
     10438      3480  TIP3      OH2            35.6372494676       19.6633751950       -7.5041099678  W2        3480            0.0000000000
     10439      3480  TIP3      H1             36.2489994676       19.1489451950       -8.0307499678  W2        3480            0.0000000000
     10440      3480  TIP3      H2             36.0195894676       20.5405851950       -7.4806699678  W2        3480            0.0000000000
     10441      3481  TIP3      OH2            21.0942394676       19.0511351950       -8.1279199678  W2        3481            0.0000000000
     10442      3481  TIP3      H1             20.3172194676       18.8166251950       -8.6353299678  W2        3481            0.0000000000
     10443      3481  TIP3      H2             21.6245994676       18.2543451950       -8.1191199678  W2        3481            0.0000000000
     10444      3482  TIP3      OH2            19.9305794676       18.8489451950      -12.3243099678  W2        3482            0.0000000000
     10445      3482  TIP3      H1             20.3696494676       19.4599951950      -12.9159599678  W2        3482            0.0000000000
     10446      3482  TIP3      H2             19.2968194676       19.3873551950      -11.8503099678  W2        3482            0.0000000000
     10447      3483  TIP3      OH2            25.6734994676       18.9778451950       -8.3146099678  W2        3483            0.0000000000
     10448      3483  TIP3      H1             26.5478394676       19.3662751950       -8.3441799678  W2        3483            0.0000000000
     10449      3483  TIP3      H2             25.5375794676       18.7626251950       -7.3918899678  W2        3483            0.0000000000
     10450      3484  TIP3      OH2            31.2303394676       19.0078251950       -6.6654399678  W2        3484            0.0000000000
     10451      3484  TIP3      H1             31.3064994676       19.1029851950       -7.6148399678  W2        3484            0.0000000000
     10452      3484  TIP3      H2             30.9552594676       18.1001151950       -6.5365299678  W2        3484            0.0000000000
     10453      3485  TIP3      OH2            32.5835994676       19.0336051950      -10.9729399678  W2        3485            0.0000000000
     10454      3485  TIP3      H1             31.8807094676       19.6485251950      -11.1827999678  W2        3485            0.0000000000
     10455      3485  TIP3      H2             32.1387394676       18.1962751950      -10.8418499678  W2        3485            0.0000000000
     10456      3486  TIP3      OH2            19.8315294676       34.7971651950      -11.4267999678  W2        3486            0.0000000000
     10457      3486  TIP3      H1             19.1465194676       34.7590551950      -12.0942899678  W2        3486            0.0000000000
     10458      3486  TIP3      H2             19.8352494676       35.7099251950      -11.1385899678  W2        3486            0.0000000000
     10459      3487  TIP3      OH2            21.7914894676       20.7650951950      -13.8818999678  W2        3487            0.0000000000
     10460      3487  TIP3      H1             22.2828294676       20.1353351950      -14.4093499678  W2        3487            0.0000000000
     10461      3487  TIP3      H2             22.4151194676       21.0610351950      -13.2187799678  W2        3487            0.0000000000
     10462      3488  TIP3      OH2            26.8174994676       21.0582451950      -11.4248499678  W2        3488            0.0000000000
     10463      3488  TIP3      H1             26.9956294676       20.4115651950      -10.7419899678  W2        3488            0.0000000000
     10464      3488  TIP3      H2             26.7641194676       21.8920151950      -10.9577399678  W2        3488            0.0000000000
     10465      3489  TIP3      OH2            28.6958794676       36.0066551950      -13.0291799678  W2        3489            0.0000000000
     10466      3489  TIP3      H1             29.5618994676       36.3733951950      -13.2073599678  W2        3489            0.0000000000
     10467      3489  TIP3      H2             28.4491594676       35.5674551950      -13.8430999678  W2        3489            0.0000000000
     10468      3490  TIP3      OH2            35.4048394676       35.5696851950      -10.3500699678  W2        3490            0.0000000000
     10469      3490  TIP3      H1             35.2105494676       34.8218951950      -10.9151099678  W2        3490            0.0000000000
     10470      3490  TIP3      H2             35.3658494676       36.3276951950      -10.9332799678  W2        3490            0.0000000000
     10471      3491  TIP3      OH2            21.0520394676       19.5653251950        1.3897000322  W2        3491            0.0000000000
     10472      3491  TIP3      H1             20.6858594676       18.7995851950        1.8321700322  W2        3491            0.0000000000
     10473      3491  TIP3      H2             21.9648894676       19.5943451950        1.6762100322  W2        3491            0.0000000000
     10474      3492  TIP3      OH2            23.0251194676       18.9157651950        2.9254100322  W2        3492            0.0000000000
     10475      3492  TIP3      H1             23.9234794676       18.6417851950        2.7407500322  W2        3492            0.0000000000
     10476      3492  TIP3      H2             22.6384294676       18.1733651950        3.3896700322  W2        3492            0.0000000000
     10477      3493  TIP3      OH2            21.6496494676       35.7172451950      -14.4015899678  W2        3493            0.0000000000
     10478      3493  TIP3      H1             21.3821094676       36.0035351950      -13.5282799678  W2        3493            0.0000000000
     10479      3493  TIP3      H2             22.4209094676       35.1711651950      -14.2493399678  W2        3493            0.0000000000
     10480      3494  TIP3      OH2            31.4463494676       18.2482951950        3.1076900322  W2        3494            0.0000000000
     10481      3494  TIP3      H1             31.5230694676       17.8223651950        3.9614600322  W2        3494            0.0000000000
     10482      3494  TIP3      H2             32.3400094676       18.2617651950        2.7650400322  W2        3494            0.0000000000
     10483      3495  TIP3      OH2            34.6224594676       34.3209251950        1.8001100322  W2        3495            0.0000000000
     10484      3495  TIP3      H1             33.8406494676       34.1347251950        1.2801700322  W2        3495            0.0000000000
     10485      3495  TIP3      H2             34.5504494676       35.2503551950        2.0173600322  W2        3495            0.0000000000
     10486      3496  TIP3      OH2            37.8634894676       25.1867951950       -9.2295699678  W2        3496            0.0000000000
     10487      3496  TIP3      H1             37.4158294676       26.0326651950       -9.2479199678  W2        3496            0.0000000000
     10488      3496  TIP3      H2             37.3026094676       24.6072151950       -9.7450599678  W2        3496            0.0000000000
     10489      3497  TIP3      OH2            37.8841694676       29.7236651950       -1.4787899678  W2        3497            0.0000000000
     10490      3497  TIP3      H1             37.3830094676       29.6956051950       -2.2938199678  W2        3497            0.0000000000
     10491      3497  TIP3      H2             37.8895394676       28.8179851950       -1.1690599678  W2        3497            0.0000000000
     10492      3498  TIP3      OH2            37.6344394676       32.5040451950       -4.5947699678  W2        3498            0.0000000000
     10493      3498  TIP3      H1             38.5804994676       32.3597451950       -4.6138199678  W2        3498            0.0000000000
     10494      3498  TIP3      H2             37.5220694676       33.2883251950       -4.0576499678  W2        3498            0.0000000000
     10495      3499  TIP3      OH2            37.2011594676       21.9192351950       -7.6273999678  W2        3499            0.0000000000
     10496      3499  TIP3      H1             37.8319294676       21.8904451950       -6.9080099678  W2        3499            0.0000000000
     10497      3499  TIP3      H2             37.6505894676       21.4941051950       -8.3578099678  W2        3499            0.0000000000
     10498      3500  TIP3      OH2            38.0450894676       27.2758351950       -0.2763799678  W2        3500            0.0000000000
     10499      3500  TIP3      H1             38.2679494676       26.8577951950        0.5553700322  W2        3500            0.0000000000
     10500      3500  TIP3      H2             37.4430994676       26.6633351950       -0.6990999678  W2        3500            0.0000000000
     10501      3501  TIP3      OH2            38.4475294676       29.5310951950        3.0233500322  W2        3501            0.0000000000
     10502      3501  TIP3      H1             38.5915794676       28.6291651950        2.7370200322  W2        3501            0.0000000000
     10503      3501  TIP3      H2             37.6752694676       29.8173051950        2.5355800322  W2        3501            0.0000000000
     10504      3502  TIP3      OH2            37.1240394676       36.8100651950       -8.7145099678  W2        3502            0.0000000000
     10505      3502  TIP3      H1             36.4767494676       36.3482351950       -9.2473899678  W2        3502            0.0000000000
     10506      3502  TIP3      H2             37.4784994676       36.1383951950       -8.1318899678  W2        3502            0.0000000000
     10507      3503  TIP3      OH2            37.9939594676       34.8907651950       -6.9098899678  W2        3503            0.0000000000
     10508      3503  TIP3      H1             37.6596394676       34.0104951950       -6.7378699678  W2        3503            0.0000000000
     10509      3503  TIP3      H2             38.2161994676       35.2362651950       -6.0453299678  W2        3503            0.0000000000
     10510      3504  TIP3      OH2            38.0739094676       27.9663051950       -4.4583999678  W2        3504            0.0000000000
     10511      3504  TIP3      H1             38.2581994676       27.8844751950       -5.3941099678  W2        3504            0.0000000000
     10512      3504  TIP3      H2             38.9231994676       27.8420051950       -4.0347599678  W2        3504            0.0000000000
     10513      3505  TIP3      OH2            37.6713894676       23.2368051950        1.6824800322  W2        3505            0.0000000000
     10514      3505  TIP3      H1             38.5908794676       23.1146351950        1.9187900322  W2        3505            0.0000000000
     10515      3505  TIP3      H2             37.2218394676       22.4867751950        2.0718300322  W2        3505            0.0000000000
     10516      3506  TIP3      OH2            37.1966694676       24.5482651950       -4.3572099678  W2        3506            0.0000000000
     10517      3506  TIP3      H1             37.6886494676       24.3273151950       -5.1480099678  W2        3506            0.0000000000
     10518      3506  TIP3      H2             37.5587594676       25.3886051950       -4.0762599678  W2        3506            0.0000000000
     10519      3507  TIP3      OH2            37.5103194676       20.8061751950      -10.3029699678  W2        3507            0.0000000000
     10520      3507  TIP3      H1             36.5851594676       21.0148351950      -10.4324199678  W2        3507            0.0000000000
     10521      3507  TIP3      H2             37.9643094676       21.2902551950      -10.9927399678  W2        3507            0.0000000000
     10522      3508  TIP3      OH2            37.4738594676       19.5440751950       -1.9587199678  W2        3508            0.0000000000
     10523      3508  TIP3      H1             36.8089094676       19.2981051950       -1.3156299678  W2        3508            0.0000000000
     10524      3508  TIP3      H2             37.0309894676       20.1661151950       -2.5359199678  W2        3508            0.0000000000
     10525      3509  TIP3      OH2           -29.9407405324       37.4698051950       -5.2177199678  W2        3509            0.0000000000
     10526      3509  TIP3      H1            -30.0583205324       36.5214051950       -5.2718899678  W2        3509            0.0000000000
     10527      3509  TIP3      H2            -30.7957305324       37.8024151950       -4.9446099678  W2        3509            0.0000000000
     10528      3510  TIP3      OH2           -21.6986905324       37.4290251950      -12.2674599678  W2        3510            0.0000000000
     10529      3510  TIP3      H1            -22.5986205324       37.5679251950      -11.9723999678  W2        3510            0.0000000000
     10530      3510  TIP3      H2            -21.4468505324       38.2604851950      -12.6692899678  W2        3510            0.0000000000
     10531      3511  TIP3      OH2           -32.6719805324       38.3732551950       -4.4400899678  W2        3511            0.0000000000
     10532      3511  TIP3      H1            -33.5336105324       38.2860751950       -4.8477999678  W2        3511            0.0000000000
     10533      3511  TIP3      H2            -32.6944105324       39.2292651950       -4.0123299678  W2        3511            0.0000000000
     10534      3512  TIP3      OH2           -28.0092005324       38.0952951950       -1.0653899678  W2        3512            0.0000000000
     10535      3512  TIP3      H1            -27.5888905324       37.6800051950       -0.3123299678  W2        3512            0.0000000000
     10536      3512  TIP3      H2            -28.9422405324       37.9166251950       -0.9481899678  W2        3512            0.0000000000
     10537      3513  TIP3      OH2           -35.1021205324       38.0236051950       -5.4214599678  W2        3513            0.0000000000
     10538      3513  TIP3      H1            -35.3311405324       38.0828551950       -6.3489599678  W2        3513            0.0000000000
     10539      3513  TIP3      H2            -35.5447805324       37.2321551950       -5.1150499678  W2        3513            0.0000000000
     10540      3514  TIP3      OH2           -30.6393005324       37.7772251950       -1.1760199678  W2        3514            0.0000000000
     10541      3514  TIP3      H1            -30.7373405324       38.7235451950       -1.2813999678  W2        3514            0.0000000000
     10542      3514  TIP3      H2            -31.3816805324       37.4046051950       -1.6516699678  W2        3514            0.0000000000
     10543      3515  TIP3      OH2           -30.4174905324       37.0709651950        1.4952600322  W2        3515            0.0000000000
     10544      3515  TIP3      H1            -29.7056505324       36.4311851950        1.4811700322  W2        3515            0.0000000000
     10545      3515  TIP3      H2            -30.5184505324       37.3377951950        0.5815700322  W2        3515            0.0000000000
     10546      3516  TIP3      OH2           -19.7506705324       37.6249551950        3.5590600322  W2        3516            0.0000000000
     10547      3516  TIP3      H1            -19.4009705324       36.9713051950        2.9535300322  W2        3516            0.0000000000
     10548      3516  TIP3      H2            -19.6037205324       38.4623651950        3.1193200322  W2        3516            0.0000000000
     10549      3517  TIP3      OH2           -37.9501405324       38.4000751950       -1.9587199678  W2        3517            0.0000000000
     10550      3517  TIP3      H1            -38.6150905324       38.1541051950       -1.3156299678  W2        3517            0.0000000000
     10551      3517  TIP3      H2            -38.3930105324       39.0221151950       -2.5359199678  W2        3517            0.0000000000
     10552      3518  TIP3      OH2           -21.2303605324       37.8240451950       -0.2727299678  W2        3518            0.0000000000
     10553      3518  TIP3      H1            -22.0430105324       38.1490751950       -0.6602599678  W2        3518            0.0000000000
     10554      3518  TIP3      H2            -20.9975105324       37.0638951950       -0.8058199678  W2        3518            0.0000000000
     10555      3519  TIP3      OH2           -22.6577905324       37.3805051950       -5.8371999678  W2        3519            0.0000000000
     10556      3519  TIP3      H1            -22.0540305324       37.9280451950       -6.3390999678  W2        3519            0.0000000000
     10557      3519  TIP3      H2            -23.5275905324       37.6995451950       -6.0777899678  W2        3519            0.0000000000
     10558      3520  TIP3      OH2           -35.4737605324       37.9071351950       -8.1279199678  W2        3520            0.0000000000
     10559      3520  TIP3      H1            -36.2507805324       37.6726251950       -8.6353299678  W2        3520            0.0000000000
     10560      3520  TIP3      H2            -34.9434005324       37.1103451950       -8.1191199678  W2        3520            0.0000000000
     10561      3521  TIP3      OH2           -36.6374205324       37.7049451950      -12.3243099678  W2        3521            0.0000000000
     10562      3521  TIP3      H1            -36.1983505324       38.3159951950      -12.9159599678  W2        3521            0.0000000000
     10563      3521  TIP3      H2            -37.2711805324       38.2433551950      -11.8503099678  W2        3521            0.0000000000
     10564      3522  TIP3      OH2           -30.8945005324       37.8338451950       -8.3146099678  W2        3522            0.0000000000
     10565      3522  TIP3      H1            -30.0201605324       38.2222751950       -8.3441799678  W2        3522            0.0000000000
     10566      3522  TIP3      H2            -31.0304205324       37.6186251950       -7.3918899678  W2        3522            0.0000000000
     10567      3523  TIP3      OH2           -25.3376605324       37.8638251950       -6.6654399678  W2        3523            0.0000000000
     10568      3523  TIP3      H1            -25.2615005324       37.9589851950       -7.6148399678  W2        3523            0.0000000000
     10569      3523  TIP3      H2            -25.6127405324       36.9561151950       -6.5365299678  W2        3523            0.0000000000
     10570      3524  TIP3      OH2           -23.9844005324       37.8896051950      -10.9729399678  W2        3524            0.0000000000
     10571      3524  TIP3      H1            -24.6872905324       38.5045251950      -11.1827999678  W2        3524            0.0000000000
     10572      3524  TIP3      H2            -24.4292605324       37.0522751950      -10.8418499678  W2        3524            0.0000000000
     10573      3525  TIP3      OH2           -33.5428805324       37.7717651950        2.9254100322  W2        3525            0.0000000000
     10574      3525  TIP3      H1            -32.6445205324       37.4977851950        2.7407500322  W2        3525            0.0000000000
     10575      3525  TIP3      H2            -33.9295705324       37.0293651950        3.3896700322  W2        3525            0.0000000000
     10576      3526  TIP3      OH2           -25.1216505324       37.1042951950        3.1076900322  W2        3526            0.0000000000
     10577      3526  TIP3      H1            -25.0449305324       36.6783651950        3.9614600322  W2        3526            0.0000000000
     10578      3526  TIP3      H2            -24.2279905324       37.1177651950        2.7650400322  W2        3526            0.0000000000
     10579      3527  TIP3      OH2           -11.0847405324       37.4698051950       -5.2177199678  W2        3527            0.0000000000
     10580      3527  TIP3      H1            -11.2023205324       36.5214051950       -5.2718899678  W2        3527            0.0000000000
     10581      3527  TIP3      H2            -11.9397305324       37.8024151950       -4.9446099678  W2        3527            0.0000000000
     10582      3528  TIP3      OH2            -2.8426905324       37.4290251950      -12.2674599678  W2        3528            0.0000000000
     10583      3528  TIP3      H1             -3.7426205324       37.5679251950      -11.9723999678  W2        3528            0.0000000000
     10584      3528  TIP3      H2             -2.5908505324       38.2604851950      -12.6692899678  W2        3528            0.0000000000
     10585      3529  TIP3      OH2           -13.8159805324       38.3732551950       -4.4400899678  W2        3529            0.0000000000
     10586      3529  TIP3      H1            -14.6776105324       38.2860751950       -4.8477999678  W2        3529            0.0000000000
     10587      3529  TIP3      H2            -13.8384105324       39.2292651950       -4.0123299678  W2        3529            0.0000000000
     10588      3530  TIP3      OH2            -9.1532005324       38.0952951950       -1.0653899678  W2        3530            0.0000000000
     10589      3530  TIP3      H1             -8.7328905324       37.6800051950       -0.3123299678  W2        3530            0.0000000000
     10590      3530  TIP3      H2            -10.0862405324       37.9166251950       -0.9481899678  W2        3530            0.0000000000
     10591      3531  TIP3      OH2           -16.2461205324       38.0236051950       -5.4214599678  W2        3531            0.0000000000
     10592      3531  TIP3      H1            -16.4751405324       38.0828551950       -6.3489599678  W2        3531            0.0000000000
     10593      3531  TIP3      H2            -16.6887805324       37.2321551950       -5.1150499678  W2        3531            0.0000000000
     10594      3532  TIP3      OH2           -11.7833005324       37.7772251950       -1.1760199678  W2        3532            0.0000000000
     10595      3532  TIP3      H1            -11.8813405324       38.7235451950       -1.2813999678  W2        3532            0.0000000000
     10596      3532  TIP3      H2            -12.5256805324       37.4046051950       -1.6516699678  W2        3532            0.0000000000
     10597      3533  TIP3      OH2           -11.5614905324       37.0709651950        1.4952600322  W2        3533            0.0000000000
     10598      3533  TIP3      H1            -10.8496505324       36.4311851950        1.4811700322  W2        3533            0.0000000000
     10599      3533  TIP3      H2            -11.6624505324       37.3377951950        0.5815700322  W2        3533            0.0000000000
     10600      3534  TIP3      OH2            -0.8946705324       37.6249551950        3.5590600322  W2        3534            0.0000000000
     10601      3534  TIP3      H1             -0.5449705324       36.9713051950        2.9535300322  W2        3534            0.0000000000
     10602      3534  TIP3      H2             -0.7477205324       38.4623651950        3.1193200322  W2        3534            0.0000000000
     10603      3535  TIP3      OH2           -19.0941405324       38.4000751950       -1.9587199678  W2        3535            0.0000000000
     10604      3535  TIP3      H1            -19.7590905324       38.1541051950       -1.3156299678  W2        3535            0.0000000000
     10605      3535  TIP3      H2            -19.5370105324       39.0221151950       -2.5359199678  W2        3535            0.0000000000
     10606      3536  TIP3      OH2            -2.3743605324       37.8240451950       -0.2727299678  W2        3536            0.0000000000
     10607      3536  TIP3      H1             -3.1870105324       38.1490751950       -0.6602599678  W2        3536            0.0000000000
     10608      3536  TIP3      H2             -2.1415105324       37.0638951950       -0.8058199678  W2        3536            0.0000000000
     10609      3537  TIP3      OH2            -3.8017905324       37.3805051950       -5.8371999678  W2        3537            0.0000000000
     10610      3537  TIP3      H1             -3.1980305324       37.9280451950       -6.3390999678  W2        3537            0.0000000000
     10611      3537  TIP3      H2             -4.6715905324       37.6995451950       -6.0777899678  W2        3537            0.0000000000
     10612      3538  TIP3      OH2           -16.6177605324       37.9071351950       -8.1279199678  W2        3538            0.0000000000
     10613      3538  TIP3      H1            -17.3947805324       37.6726251950       -8.6353299678  W2        3538            0.0000000000
     10614      3538  TIP3      H2            -16.0874005324       37.1103451950       -8.1191199678  W2        3538            0.0000000000
     10615      3539  TIP3      OH2           -17.7814205324       37.7049451950      -12.3243099678  W2        3539            0.0000000000
     10616      3539  TIP3      H1            -17.3423505324       38.3159951950      -12.9159599678  W2        3539            0.0000000000
     10617      3539  TIP3      H2            -18.4151805324       38.2433551950      -11.8503099678  W2        3539            0.0000000000
     10618      3540  TIP3      OH2           -12.0385005324       37.8338451950       -8.3146099678  W2        3540            0.0000000000
     10619      3540  TIP3      H1            -11.1641605324       38.2222751950       -8.3441799678  W2        3540            0.0000000000
     10620      3540  TIP3      H2            -12.1744205324       37.6186251950       -7.3918899678  W2        3540            0.0000000000
     10621      3541  TIP3      OH2            -6.4816605324       37.8638251950       -6.6654399678  W2        3541            0.0000000000
     10622      3541  TIP3      H1             -6.4055005324       37.9589851950       -7.6148399678  W2        3541            0.0000000000
     10623      3541  TIP3      H2             -6.7567405324       36.9561151950       -6.5365299678  W2        3541            0.0000000000
     10624      3542  TIP3      OH2            -5.1284005324       37.8896051950      -10.9729399678  W2        3542            0.0000000000
     10625      3542  TIP3      H1             -5.8312905324       38.5045251950      -11.1827999678  W2        3542            0.0000000000
     10626      3542  TIP3      H2             -5.5732605324       37.0522751950      -10.8418499678  W2        3542            0.0000000000
     10627      3543  TIP3      OH2           -14.6868805324       37.7717651950        2.9254100322  W2        3543            0.0000000000
     10628      3543  TIP3      H1            -13.7885205324       37.4977851950        2.7407500322  W2        3543            0.0000000000
     10629      3543  TIP3      H2            -15.0735705324       37.0293651950        3.3896700322  W2        3543            0.0000000000
     10630      3544  TIP3      OH2            -6.2656505324       37.1042951950        3.1076900322  W2        3544            0.0000000000
     10631      3544  TIP3      H1             -6.1889305324       36.6783651950        3.9614600322  W2        3544            0.0000000000
     10632      3544  TIP3      H2             -5.3719905324       37.1177651950        2.7650400322  W2        3544            0.0000000000
     10633      3545  TIP3      OH2             7.7712594676       37.4698051950       -5.2177199678  W2        3545            0.0000000000
     10634      3545  TIP3      H1              7.6536794676       36.5214051950       -5.2718899678  W2        3545            0.0000000000
     10635      3545  TIP3      H2              6.9162694676       37.8024151950       -4.9446099678  W2        3545            0.0000000000
     10636      3546  TIP3      OH2            16.0133094676       37.4290251950      -12.2674599678  W2        3546            0.0000000000
     10637      3546  TIP3      H1             15.1133794676       37.5679251950      -11.9723999678  W2        3546            0.0000000000
     10638      3546  TIP3      H2             16.2651494676       38.2604851950      -12.6692899678  W2        3546            0.0000000000
     10639      3547  TIP3      OH2             5.0400194676       38.3732551950       -4.4400899678  W2        3547            0.0000000000
     10640      3547  TIP3      H1              4.1783894676       38.2860751950       -4.8477999678  W2        3547            0.0000000000
     10641      3547  TIP3      H2              5.0175894676       39.2292651950       -4.0123299678  W2        3547            0.0000000000
     10642      3548  TIP3      OH2             9.7027994676       38.0952951950       -1.0653899678  W2        3548            0.0000000000
     10643      3548  TIP3      H1             10.1231094676       37.6800051950       -0.3123299678  W2        3548            0.0000000000
     10644      3548  TIP3      H2              8.7697594676       37.9166251950       -0.9481899678  W2        3548            0.0000000000
     10645      3549  TIP3      OH2             2.6098794676       38.0236051950       -5.4214599678  W2        3549            0.0000000000
     10646      3549  TIP3      H1              2.3808594676       38.0828551950       -6.3489599678  W2        3549            0.0000000000
     10647      3549  TIP3      H2              2.1672194676       37.2321551950       -5.1150499678  W2        3549            0.0000000000
     10648      3550  TIP3      OH2             7.0726994676       37.7772251950       -1.1760199678  W2        3550            0.0000000000
     10649      3550  TIP3      H1              6.9746594676       38.7235451950       -1.2813999678  W2        3550            0.0000000000
     10650      3550  TIP3      H2              6.3303194676       37.4046051950       -1.6516699678  W2        3550            0.0000000000
     10651      3551  TIP3      OH2             7.2945094676       37.0709651950        1.4952600322  W2        3551            0.0000000000
     10652      3551  TIP3      H1              8.0063494676       36.4311851950        1.4811700322  W2        3551            0.0000000000
     10653      3551  TIP3      H2              7.1935494676       37.3377951950        0.5815700322  W2        3551            0.0000000000
     10654      3552  TIP3      OH2            17.9613294676       37.6249551950        3.5590600322  W2        3552            0.0000000000
     10655      3552  TIP3      H1             18.3110294676       36.9713051950        2.9535300322  W2        3552            0.0000000000
     10656      3552  TIP3      H2             18.1082794676       38.4623651950        3.1193200322  W2        3552            0.0000000000
     10657      3553  TIP3      OH2            -0.2381405324       38.4000751950       -1.9587199678  W2        3553            0.0000000000
     10658      3553  TIP3      H1             -0.9030905324       38.1541051950       -1.3156299678  W2        3553            0.0000000000
     10659      3553  TIP3      H2             -0.6810105324       39.0221151950       -2.5359199678  W2        3553            0.0000000000
     10660      3554  TIP3      OH2            16.4816394676       37.8240451950       -0.2727299678  W2        3554            0.0000000000
     10661      3554  TIP3      H1             15.6689894676       38.1490751950       -0.6602599678  W2        3554            0.0000000000
     10662      3554  TIP3      H2             16.7144894676       37.0638951950       -0.8058199678  W2        3554            0.0000000000
     10663      3555  TIP3      OH2            15.0542094676       37.3805051950       -5.8371999678  W2        3555            0.0000000000
     10664      3555  TIP3      H1             15.6579694676       37.9280451950       -6.3390999678  W2        3555            0.0000000000
     10665      3555  TIP3      H2             14.1844094676       37.6995451950       -6.0777899678  W2        3555            0.0000000000
     10666      3556  TIP3      OH2             2.2382394676       37.9071351950       -8.1279199678  W2        3556            0.0000000000
     10667      3556  TIP3      H1              1.4612194676       37.6726251950       -8.6353299678  W2        3556            0.0000000000
     10668      3556  TIP3      H2              2.7685994676       37.1103451950       -8.1191199678  W2        3556            0.0000000000
     10669      3557  TIP3      OH2             1.0745794676       37.7049451950      -12.3243099678  W2        3557            0.0000000000
     10670      3557  TIP3      H1              1.5136494676       38.3159951950      -12.9159599678  W2        3557            0.0000000000
     10671      3557  TIP3      H2              0.4408194676       38.2433551950      -11.8503099678  W2        3557            0.0000000000
     10672      3558  TIP3      OH2             6.8174994676       37.8338451950       -8.3146099678  W2        3558            0.0000000000
     10673      3558  TIP3      H1              7.6918394676       38.2222751950       -8.3441799678  W2        3558            0.0000000000
     10674      3558  TIP3      H2              6.6815794676       37.6186251950       -7.3918899678  W2        3558            0.0000000000
     10675      3559  TIP3      OH2            12.3743394676       37.8638251950       -6.6654399678  W2        3559            0.0000000000
     10676      3559  TIP3      H1             12.4504994676       37.9589851950       -7.6148399678  W2        3559            0.0000000000
     10677      3559  TIP3      H2             12.0992594676       36.9561151950       -6.5365299678  W2        3559            0.0000000000
     10678      3560  TIP3      OH2            13.7275994676       37.8896051950      -10.9729399678  W2        3560            0.0000000000
     10679      3560  TIP3      H1             13.0247094676       38.5045251950      -11.1827999678  W2        3560            0.0000000000
     10680      3560  TIP3      H2             13.2827394676       37.0522751950      -10.8418499678  W2        3560            0.0000000000
     10681      3561  TIP3      OH2             4.1691194676       37.7717651950        2.9254100322  W2        3561            0.0000000000
     10682      3561  TIP3      H1              5.0674794676       37.4977851950        2.7407500322  W2        3561            0.0000000000
     10683      3561  TIP3      H2              3.7824294676       37.0293651950        3.3896700322  W2        3561            0.0000000000
     10684      3562  TIP3      OH2            12.5903494676       37.1042951950        3.1076900322  W2        3562            0.0000000000
     10685      3562  TIP3      H1             12.6670694676       36.6783651950        3.9614600322  W2        3562            0.0000000000
     10686      3562  TIP3      H2             13.4840094676       37.1177651950        2.7650400322  W2        3562            0.0000000000
     10687      3563  TIP3      OH2            26.6272594676       37.4698051950       -5.2177199678  W2        3563            0.0000000000
     10688      3563  TIP3      H1             26.5096794676       36.5214051950       -5.2718899678  W2        3563            0.0000000000
     10689      3563  TIP3      H2             25.7722694676       37.8024151950       -4.9446099678  W2        3563            0.0000000000
     10690      3564  TIP3      OH2            34.8693094676       37.4290251950      -12.2674599678  W2        3564            0.0000000000
     10691      3564  TIP3      H1             33.9693794676       37.5679251950      -11.9723999678  W2        3564            0.0000000000
     10692      3564  TIP3      H2             35.1211494676       38.2604851950      -12.6692899678  W2        3564            0.0000000000
     10693      3565  TIP3      OH2            23.8960194676       38.3732551950       -4.4400899678  W2        3565            0.0000000000
     10694      3565  TIP3      H1             23.0343894676       38.2860751950       -4.8477999678  W2        3565            0.0000000000
     10695      3565  TIP3      H2             23.8735894676       39.2292651950       -4.0123299678  W2        3565            0.0000000000
     10696      3566  TIP3      OH2            28.5587994676       38.0952951950       -1.0653899678  W2        3566            0.0000000000
     10697      3566  TIP3      H1             28.9791094676       37.6800051950       -0.3123299678  W2        3566            0.0000000000
     10698      3566  TIP3      H2             27.6257594676       37.9166251950       -0.9481899678  W2        3566            0.0000000000
     10699      3567  TIP3      OH2            21.4658794676       38.0236051950       -5.4214599678  W2        3567            0.0000000000
     10700      3567  TIP3      H1             21.2368594676       38.0828551950       -6.3489599678  W2        3567            0.0000000000
     10701      3567  TIP3      H2             21.0232194676       37.2321551950       -5.1150499678  W2        3567            0.0000000000
     10702      3568  TIP3      OH2            25.9286994676       37.7772251950       -1.1760199678  W2        3568            0.0000000000
     10703      3568  TIP3      H1             25.8306594676       38.7235451950       -1.2813999678  W2        3568            0.0000000000
     10704      3568  TIP3      H2             25.1863194676       37.4046051950       -1.6516699678  W2        3568            0.0000000000
     10705      3569  TIP3      OH2            26.1505094676       37.0709651950        1.4952600322  W2        3569            0.0000000000
     10706      3569  TIP3      H1             26.8623494676       36.4311851950        1.4811700322  W2        3569            0.0000000000
     10707      3569  TIP3      H2             26.0495494676       37.3377951950        0.5815700322  W2        3569            0.0000000000
     10708      3570  TIP3      OH2            36.8173294676       37.6249551950        3.5590600322  W2        3570            0.0000000000
     10709      3570  TIP3      H1             37.1670294676       36.9713051950        2.9535300322  W2        3570            0.0000000000
     10710      3570  TIP3      H2             36.9642794676       38.4623651950        3.1193200322  W2        3570            0.0000000000
     10711      3571  TIP3      OH2            18.6178594676       38.4000751950       -1.9587199678  W2        3571            0.0000000000
     10712      3571  TIP3      H1             17.9529094676       38.1541051950       -1.3156299678  W2        3571            0.0000000000
     10713      3571  TIP3      H2             18.1749894676       39.0221151950       -2.5359199678  W2        3571            0.0000000000
     10714      3572  TIP3      OH2            35.3376394676       37.8240451950       -0.2727299678  W2        3572            0.0000000000
     10715      3572  TIP3      H1             34.5249894676       38.1490751950       -0.6602599678  W2        3572            0.0000000000
     10716      3572  TIP3      H2             35.5704894676       37.0638951950       -0.8058199678  W2        3572            0.0000000000
     10717      3573  TIP3      OH2            33.9102094676       37.3805051950       -5.8371999678  W2        3573            0.0000000000
     10718      3573  TIP3      H1             34.5139694676       37.9280451950       -6.3390999678  W2        3573            0.0000000000
     10719      3573  TIP3      H2             33.0404094676       37.6995451950       -6.0777899678  W2        3573            0.0000000000
     10720      3574  TIP3      OH2            21.0942394676       37.9071351950       -8.1279199678  W2        3574            0.0000000000
     10721      3574  TIP3      H1             20.3172194676       37.6726251950       -8.6353299678  W2        3574            0.0000000000
     10722      3574  TIP3      H2             21.6245994676       37.1103451950       -8.1191199678  W2        3574            0.0000000000
     10723      3575  TIP3      OH2            19.9305794676       37.7049451950      -12.3243099678  W2        3575            0.0000000000
     10724      3575  TIP3      H1             20.3696494676       38.3159951950      -12.9159599678  W2        3575            0.0000000000
     10725      3575  TIP3      H2             19.2968194676       38.2433551950      -11.8503099678  W2        3575            0.0000000000
     10726      3576  TIP3      OH2            25.6734994676       37.8338451950       -8.3146099678  W2        3576            0.0000000000
     10727      3576  TIP3      H1             26.5478394676       38.2222751950       -8.3441799678  W2        3576            0.0000000000
     10728      3576  TIP3      H2             25.5375794676       37.6186251950       -7.3918899678  W2        3576            0.0000000000
     10729      3577  TIP3      OH2            31.2303394676       37.8638251950       -6.6654399678  W2        3577            0.0000000000
     10730      3577  TIP3      H1             31.3064994676       37.9589851950       -7.6148399678  W2        3577            0.0000000000
     10731      3577  TIP3      H2             30.9552594676       36.9561151950       -6.5365299678  W2        3577            0.0000000000
     10732      3578  TIP3      OH2            32.5835994676       37.8896051950      -10.9729399678  W2        3578            0.0000000000
     10733      3578  TIP3      H1             31.8807094676       38.5045251950      -11.1827999678  W2        3578            0.0000000000
     10734      3578  TIP3      H2             32.1387394676       37.0522751950      -10.8418499678  W2        3578            0.0000000000
     10735      3579  TIP3      OH2            23.0251194676       37.7717651950        2.9254100322  W2        3579            0.0000000000
     10736      3579  TIP3      H1             23.9234794676       37.4977851950        2.7407500322  W2        3579            0.0000000000
     10737      3579  TIP3      H2             22.6384294676       37.0293651950        3.3896700322  W2        3579            0.0000000000
     10738      3580  TIP3      OH2            31.4463494676       37.1042951950        3.1076900322  W2        3580            0.0000000000
     10739      3580  TIP3      H1             31.5230694676       36.6783651950        3.9614600322  W2        3580            0.0000000000
     10740      3580  TIP3      H2             32.3400094676       37.1177651950        2.7650400322  W2        3580            0.0000000000
     10741      3581  TIP3      OH2            37.4738594676       38.4000751950       -1.9587199678  W2        3581            0.0000000000
     10742      3581  TIP3      H1             36.8089094676       38.1541051950       -1.3156299678  W2        3581            0.0000000000
     10743      3581  TIP3      H2             37.0309894676       39.0221151950       -2.5359199678  W2        3581            0.0000000000
     10744      3582  TIP3      OH2           -26.3955005324      -28.3606348050       10.6868300322  W2        3582            0.0000000000
     10745      3582  TIP3      H1            -26.3063905324      -27.4168148050       10.5545400322  W2        3582            0.0000000000
     10746      3582  TIP3      H2            -27.0337405324      -28.6359948050       10.0287700322  W2        3582            0.0000000000
     10747      3583  TIP3      OH2           -27.4623705324      -29.1055648050       14.1056500322  W2        3583            0.0000000000
     10748      3583  TIP3      H1            -27.5006205324      -29.7519348050       14.8106100322  W2        3583            0.0000000000
     10749      3583  TIP3      H2            -27.7847205324      -29.5721248050       13.3345200322  W2        3583            0.0000000000
     10750      3584  TIP3      OH2           -23.7563505324      -26.1665248050       12.4071600322  W2        3585            0.0000000000
     10751      3584  TIP3      H1            -24.1970805324      -26.8869248050       12.8577200322  W2        3585            0.0000000000
     10752      3584  TIP3      H2            -23.7693805324      -25.4458048050       13.0369300322  W2        3585            0.0000000000
     10753      3585  TIP3      OH2           -34.1705605324      -25.0414648050       14.2335500322  W2        3586            0.0000000000
     10754      3585  TIP3      H1            -34.5400405324      -25.8434148050       13.8639800322  W2        3586            0.0000000000
     10755      3585  TIP3      H2            -33.2294505324      -25.2099748050       14.2798900322  W2        3586            0.0000000000
     10756      3586  TIP3      OH2           -37.5605105324      -31.3812048050        9.6264300322  W2        3587            0.0000000000
     10757      3586  TIP3      H1            -38.0081705324      -30.5353348050        9.6080800322  W2        3587            0.0000000000
     10758      3586  TIP3      H2            -38.1213905324      -31.9607848050        9.1109400322  W2        3587            0.0000000000
     10759      3587  TIP3      OH2           -36.8499005324      -29.2192448050       11.7522300322  W2        3588            0.0000000000
     10760      3587  TIP3      H1            -36.6365505324      -29.9890848050       12.2795300322  W2        3588            0.0000000000
     10761      3587  TIP3      H2            -36.1121405324      -29.1295748050       11.1489900322  W2        3588            0.0000000000
     10762      3588  TIP3      OH2           -26.6448005324      -21.0623548050       12.6192000322  W2        3589            0.0000000000
     10763      3588  TIP3      H1            -26.0251605324      -21.7388848050       12.3461200322  W2        3589            0.0000000000
     10764      3588  TIP3      H2            -26.8530605324      -21.2802748050       13.5276900322  W2        3589            0.0000000000
     10765      3589  TIP3      OH2           -29.0729305324      -26.6734248050       14.5117500322  W2        3590            0.0000000000
     10766      3589  TIP3      H1            -28.7691405324      -27.3592848050       13.9171600322  W2        3590            0.0000000000
     10767      3589  TIP3      H2            -28.3515305324      -26.5545548050       15.1295500322  W2        3590            0.0000000000
     10768      3590  TIP3      OH2           -25.9322305324      -32.2791848050       14.8392300322  W2        3592            0.0000000000
     10769      3590  TIP3      H1            -25.7896405324      -33.2254848050       14.8593900322  W2        3592            0.0000000000
     10770      3590  TIP3      H2            -26.0383305324      -32.0722048050       13.9107200322  W2        3592            0.0000000000
     10771      3591  TIP3      OH2           -32.7774005324      -34.1775448050       12.1117100322  W2        3593            0.0000000000
     10772      3591  TIP3      H1            -32.7342905324      -33.3176948050       11.6933400322  W2        3593            0.0000000000
     10773      3591  TIP3      H2            -33.2349905324      -34.7300748050       11.4780300322  W2        3593            0.0000000000
     10774      3592  TIP3      OH2           -25.0551305324      -34.0469848050       10.5125400322  W2        3594            0.0000000000
     10775      3592  TIP3      H1            -24.4087005324      -34.3756648050       11.1373000322  W2        3594            0.0000000000
     10776      3592  TIP3      H2            -24.5451905324      -33.5290848050        9.8896800322  W2        3594            0.0000000000
     10777      3593  TIP3      OH2           -36.1572505324      -31.7809648050       12.8738500322  W2        3595            0.0000000000
     10778      3593  TIP3      H1            -35.5035905324      -32.3307948050       13.3058600322  W2        3595            0.0000000000
     10779      3593  TIP3      H2            -36.1333205324      -32.0550648050       11.9570500322  W2        3595            0.0000000000
     10780      3594  TIP3      OH2           -31.0008005324      -30.2308348050       12.0890000322  W2        3596            0.0000000000
     10781      3594  TIP3      H1            -30.3847005324      -30.7572948050       12.5984000322  W2        3596            0.0000000000
     10782      3594  TIP3      H2            -31.5869205324      -30.8709648050       11.6853600322  W2        3596            0.0000000000
     10783      3595  TIP3      OH2           -26.5982305324      -25.7595948050        9.7297000322  W2        3599            0.0000000000
     10784      3595  TIP3      H1            -26.8937205324      -26.0823648050        8.8783900322  W2        3599            0.0000000000
     10785      3595  TIP3      H2            -26.9224505324      -24.8599248050        9.7709600322  W2        3599            0.0000000000
     10786      3596  TIP3      OH2           -23.2912905324      -34.7560548050       12.4931300322  W2        3601            0.0000000000
     10787      3596  TIP3      H1            -23.5064905324      -35.5217148050       13.0257300322  W2        3601            0.0000000000
     10788      3596  TIP3      H2            -22.6355505324      -34.2835948050       13.0059800322  W2        3601            0.0000000000
     10789      3597  TIP3      OH2           -34.3734805324      -33.3675248050       14.1380100322  W2        3602            0.0000000000
     10790      3597  TIP3      H1            -33.7598505324      -32.7347648050       14.5112500322  W2        3602            0.0000000000
     10791      3597  TIP3      H2            -33.8614105324      -33.8400248050       13.4817000322  W2        3602            0.0000000000
     10792      3598  TIP3      OH2           -36.8695505324      -25.9490448050        8.0422400322  W2        3604            0.0000000000
     10793      3598  TIP3      H1            -37.1414605324      -25.7199448050        7.1535300322  W2        3604            0.0000000000
     10794      3598  TIP3      H2            -36.8239805324      -25.1111648050        8.5027700322  W2        3604            0.0000000000
     10795      3599  TIP3      OH2           -23.2445805324      -24.3274548050       14.7550900322  W2        3605            0.0000000000
     10796      3599  TIP3      H1            -24.1862105324      -24.2690648050       14.9167800322  W2        3605            0.0000000000
     10797      3599  TIP3      H2            -22.9679705324      -23.4214048050       14.6180600322  W2        3605            0.0000000000
     10798      3600  TIP3      OH2           -29.9407405324      -37.9541948050       13.6382800322  W2        3607            0.0000000000
     10799      3600  TIP3      H1            -30.0583205324      -38.9025948050       13.5841100322  W2        3607            0.0000000000
     10800      3600  TIP3      H2            -30.7957305324      -37.6215848050       13.9113900322  W2        3607            0.0000000000
     10801      3601  TIP3      OH2           -24.9924605324      -22.5461048050       11.3802500322  W2        3608            0.0000000000
     10802      3601  TIP3      H1            -24.5672305324      -23.2533148050       10.8952100322  W2        3608            0.0000000000
     10803      3601  TIP3      H2            -24.6754605324      -21.7448348050       10.9634700322  W2        3608            0.0000000000
     10804      3602  TIP3      OH2           -23.8328105324      -24.6452548050        9.8889100322  W2        3609            0.0000000000
     10805      3602  TIP3      H1            -24.0903305324      -25.3352448050        9.2775000322  W2        3609            0.0000000000
     10806      3602  TIP3      H2            -23.7617305324      -25.0881348050       10.7345000322  W2        3609            0.0000000000
     10807      3603  TIP3      OH2           -27.6742505324      -29.1166348050        8.1388600322  W2        3611            0.0000000000
     10808      3603  TIP3      H1            -28.3857005324      -28.5816648050        7.7869100322  W2        3611            0.0000000000
     10809      3603  TIP3      H2            -26.9832905324      -29.0614248050        7.4787500322  W2        3611            0.0000000000
     10810      3604  TIP3      OH2           -27.6203305324      -30.6592048050        5.1773600322  W2        3612            0.0000000000
     10811      3604  TIP3      H1            -26.9193405324      -30.6365148050        5.8287600322  W2        3612            0.0000000000
     10812      3604  TIP3      H2            -27.3180405324      -31.2872348050        4.5212900322  W2        3612            0.0000000000
     10813      3605  TIP3      OH2           -24.2684805324      -28.9073048050        9.0904500322  W2        3614            0.0000000000
     10814      3605  TIP3      H1            -25.0003805324      -28.6789348050        9.6635100322  W2        3614            0.0000000000
     10815      3605  TIP3      H2            -23.8212605324      -29.6210348050        9.5452000322  W2        3614            0.0000000000
     10816      3606  TIP3      OH2           -32.6231105324      -28.2766848050       10.9729500322  W2        3616            0.0000000000
     10817      3606  TIP3      H1            -32.9535905324      -28.6473448050       10.1546500322  W2        3616            0.0000000000
     10818      3606  TIP3      H2            -32.0347005324      -28.9472848050       11.3197800322  W2        3616            0.0000000000
     10819      3607  TIP3      OH2           -31.2563605324      -24.8486248050       13.6541700322  W2        3617            0.0000000000
     10820      3607  TIP3      H1            -31.3512305324      -25.4273148050       12.8976300322  W2        3617            0.0000000000
     10821      3607  TIP3      H2            -30.5270005324      -25.2200548050       14.1504500322  W2        3617            0.0000000000
     10822      3608  TIP3      OH2           -32.2565605324      -29.5081248050       14.6064500322  W2        3618            0.0000000000
     10823      3608  TIP3      H1            -31.6913105324      -29.3867048050       13.8435700322  W2        3618            0.0000000000
     10824      3608  TIP3      H2            -31.9376705324      -28.8706248050       15.2453000322  W2        3618            0.0000000000
     10825      3609  TIP3      OH2           -25.3975305324      -29.7450148050        6.7755700322  W2        3621            0.0000000000
     10826      3609  TIP3      H1            -24.8179805324      -29.5949848050        7.5224600322  W2        3621            0.0000000000
     10827      3609  TIP3      H2            -24.9835305324      -29.2742748050        6.0522100322  W2        3621            0.0000000000
     10828      3610  TIP3      OH2           -27.6710405324      -23.0081648050       10.2108800322  W2        3623            0.0000000000
     10829      3610  TIP3      H1            -27.1972805324      -22.7125348050       10.9883000322  W2        3623            0.0000000000
     10830      3610  TIP3      H2            -28.2341105324      -22.2700048050        9.9778400322  W2        3623            0.0000000000
     10831      3611  TIP3      OH2           -21.6986905324      -37.9949748050        6.5885400322  W2        3625            0.0000000000
     10832      3611  TIP3      H1            -22.5986205324      -37.8560748050        6.8836000322  W2        3625            0.0000000000
     10833      3611  TIP3      H2            -21.4468505324      -37.1635148050        6.1867100322  W2        3625            0.0000000000
     10834      3612  TIP3      OH2           -33.6328405324      -29.2072548050        8.5622300322  W2        3626            0.0000000000
     10835      3612  TIP3      H1            -33.9247105324      -28.4390848050        8.0713600322  W2        3626            0.0000000000
     10836      3612  TIP3      H2            -34.3073205324      -29.8666348050        8.3993700322  W2        3626            0.0000000000
     10837      3613  TIP3      OH2           -20.5095505324      -23.6287348050        4.9649300322  W2        3627            0.0000000000
     10838      3613  TIP3      H1            -20.4362005324      -22.6897148050        5.1354600322  W2        3627            0.0000000000
     10839      3613  TIP3      H2            -19.6040405324      -23.9338748050        4.9086600322  W2        3627            0.0000000000
     10840      3614  TIP3      OH2           -37.7895605324      -24.0639548050       14.2612300322  W2        3629            0.0000000000
     10841      3614  TIP3      H1            -36.8435005324      -24.2082548050       14.2421800322  W2        3629            0.0000000000
     10842      3614  TIP3      H2            -37.9019305324      -23.2796748050       14.7983500322  W2        3629            0.0000000000
     10843      3615  TIP3      OH2           -28.1987305324      -20.0516948050        8.6258000322  W2        3632            0.0000000000
     10844      3615  TIP3      H1            -28.2741305324      -20.1729748050        7.6793200322  W2        3632            0.0000000000
     10845      3615  TIP3      H2            -28.1658605324      -19.1024248050        8.7442600322  W2        3632            0.0000000000
     10846      3616  TIP3      OH2           -34.5453505324      -21.2629948050       10.4067000322  W2        3633            0.0000000000
     10847      3616  TIP3      H1            -34.3933105324      -21.6109548050       11.2853500322  W2        3633            0.0000000000
     10848      3616  TIP3      H2            -35.3963105324      -21.6192648050       10.1514200322  W2        3633            0.0000000000
     10849      3617  TIP3      OH2           -25.0971305324      -20.8976748050        5.6280400322  W2        3634            0.0000000000
     10850      3617  TIP3      H1            -24.7222905324      -21.6420648050        5.1573000322  W2        3634            0.0000000000
     10851      3617  TIP3      H2            -25.0927605324      -21.1676148050        6.5463700322  W2        3634            0.0000000000
     10852      3618  TIP3      OH2           -25.4283205324      -20.9719648050        8.3772600322  W2        3635            0.0000000000
     10853      3618  TIP3      H1            -26.3633405324      -20.8717748050        8.5559600322  W2        3635            0.0000000000
     10854      3618  TIP3      H2            -25.1481305324      -21.6813648050        8.9555800322  W2        3635            0.0000000000
     10855      3619  TIP3      OH2           -32.6719805324      -37.0507448050       14.4159100322  W2        3638            0.0000000000
     10856      3619  TIP3      H1            -33.5336105324      -37.1379248050       14.0082000322  W2        3638            0.0000000000
     10857      3619  TIP3      H2            -32.6944105324      -36.1947348050       14.8436700322  W2        3638            0.0000000000
     10858      3620  TIP3      OH2           -23.9202205324      -28.7121848050        4.4053600322  W2        3641            0.0000000000
     10859      3620  TIP3      H1            -23.8781405324      -28.9347948050        3.4753600322  W2        3641            0.0000000000
     10860      3620  TIP3      H2            -23.0710105324      -28.3134748050        4.5953500322  W2        3641            0.0000000000
     10861      3621  TIP3      OH2           -28.3474705324      -34.8363648050        5.0756900322  W2        3642            0.0000000000
     10862      3621  TIP3      H1            -28.6009905324      -34.8172048050        5.9985000322  W2        3642            0.0000000000
     10863      3621  TIP3      H2            -28.6042605324      -35.7078248050        4.7743100322  W2        3642            0.0000000000
     10864      3622  TIP3      OH2           -32.5840605324      -31.8642848050       10.4229300322  W2        3644            0.0000000000
     10865      3622  TIP3      H1            -33.4767705324      -32.2046748050       10.3643100322  W2        3644            0.0000000000
     10866      3622  TIP3      H2            -32.1334005324      -32.2411948050        9.6672500322  W2        3644            0.0000000000
     10867      3623  TIP3      OH2           -27.0485105324      -31.4482548050        9.2400100322  W2        3645            0.0000000000
     10868      3623  TIP3      H1            -27.4574805324      -30.6333948050        8.9484900322  W2        3645            0.0000000000
     10869      3623  TIP3      H2            -26.3278905324      -31.5882448050        8.6257200322  W2        3645            0.0000000000
     10870      3624  TIP3      OH2           -26.0437405324      -32.0022148050       12.0539800322  W2        3647            0.0000000000
     10871      3624  TIP3      H1            -26.2392905324      -31.3965348050       11.3390400322  W2        3647            0.0000000000
     10872      3624  TIP3      H2            -25.8624805324      -32.8356948050       11.6196100322  W2        3647            0.0000000000
     10873      3625  TIP3      OH2           -31.4651805324      -34.3907148050        4.1767300322  W2        3649            0.0000000000
     10874      3625  TIP3      H1            -31.8961105324      -34.8357048050        4.9064700322  W2        3649            0.0000000000
     10875      3625  TIP3      H2            -32.1833105324      -34.0190848050        3.6644800322  W2        3649            0.0000000000
     10876      3626  TIP3      OH2           -38.2228405324      -34.6487648050       11.2286000322  W2        3650            0.0000000000
     10877      3626  TIP3      H1            -37.5920705324      -34.6775548050       11.9479900322  W2        3650            0.0000000000
     10878      3626  TIP3      H2            -37.7734105324      -35.0738948050       10.4981900322  W2        3650            0.0000000000
     10879      3627  TIP3      OH2           -36.9486305324      -33.9025648050        6.6526400322  W2        3651            0.0000000000
     10880      3627  TIP3      H1            -36.4744605324      -33.3115748050        6.0677300322  W2        3651            0.0000000000
     10881      3627  TIP3      H2            -37.6659905324      -33.3722748050        6.9996500322  W2        3651            0.0000000000
     10882      3628  TIP3      OH2           -30.0025305324      -34.4365348050       11.5093400322  W2        3653            0.0000000000
     10883      3628  TIP3      H1            -30.9134205324      -34.3798548050       11.7979400322  W2        3653            0.0000000000
     10884      3628  TIP3      H2            -29.4972405324      -34.4969848050       12.3200600322  W2        3653            0.0000000000
     10885      3629  TIP3      OH2           -35.1741905324      -32.8079048050       10.3361000322  W2        3654            0.0000000000
     10886      3629  TIP3      H1            -36.0633905324      -32.7083548050        9.9960600322  W2        3654            0.0000000000
     10887      3629  TIP3      H2            -34.8777005324      -33.6496048050        9.9898900322  W2        3654            0.0000000000
     10888      3630  TIP3      OH2           -31.5210105324      -32.8076448050        7.9925600322  W2        3655            0.0000000000
     10889      3630  TIP3      H1            -30.5894605324      -32.6786448050        8.1708700322  W2        3655            0.0000000000
     10890      3630  TIP3      H2            -31.7359805324      -32.1382148050        7.3430300322  W2        3655            0.0000000000
     10891      3631  TIP3      OH2           -25.5973405324      -35.2019048050       14.7735200322  W2        3656            0.0000000000
     10892      3631  TIP3      H1            -26.2741805324      -35.0705948050       15.4374900322  W2        3656            0.0000000000
     10893      3631  TIP3      H2            -26.0828505324      -35.3569548050       13.9632900322  W2        3656            0.0000000000
     10894      3632  TIP3      OH2           -32.8469905324      -31.6134248050        5.5591700322  W2        3657            0.0000000000
     10895      3632  TIP3      H1            -33.3894805324      -31.9930448050        4.8679300322  W2        3657            0.0000000000
     10896      3632  TIP3      H2            -32.0135005324      -31.4189548050        5.1305800322  W2        3657            0.0000000000
     10897      3633  TIP3      OH2           -28.6825605324      -31.6492348050       13.3963000322  W2        3660            0.0000000000
     10898      3633  TIP3      H1            -28.1182205324      -32.1955748050       12.8492600322  W2        3660            0.0000000000
     10899      3633  TIP3      H2            -28.8302205324      -32.1710448050       14.1850600322  W2        3660            0.0000000000
     10900      3634  TIP3      OH2           -33.6805905324      -35.5126248050        9.8147800322  W2        3661            0.0000000000
     10901      3634  TIP3      H1            -33.9976405324      -36.4150948050        9.7793200322  W2        3661            0.0000000000
     10902      3634  TIP3      H2            -32.8991805324      -35.5108848050        9.2619400322  W2        3661            0.0000000000
     10903      3635  TIP3      OH2           -29.5117105324      -27.0478548050        7.4949800322  W2        3663            0.0000000000
     10904      3635  TIP3      H1            -30.2566105324      -27.5553248050        7.1727700322  W2        3663            0.0000000000
     10905      3635  TIP3      H2            -29.6459905324      -26.9990548050        8.4414600322  W2        3663            0.0000000000
     10906      3636  TIP3      OH2           -25.6140305324      -34.2338648050        5.6942400322  W2        3665            0.0000000000
     10907      3636  TIP3      H1            -26.5526105324      -34.1223048050        5.5431200322  W2        3665            0.0000000000
     10908      3636  TIP3      H2            -25.3168205324      -33.3771748050        6.0008100322  W2        3665            0.0000000000
     10909      3637  TIP3      OH2           -24.8956805324      -32.3665948050        7.3549800322  W2        3667            0.0000000000
     10910      3637  TIP3      H1            -24.0037805324      -32.5040948050        7.6741000322  W2        3667            0.0000000000
     10911      3637  TIP3      H2            -24.8393205324      -31.5759848050        6.8183300322  W2        3667            0.0000000000
     10912      3638  TIP3      OH2           -34.3868805324      -27.7528548050       13.2647700322  W2        3668            0.0000000000
     10913      3638  TIP3      H1            -33.6421605324      -27.7552848050       12.6634200322  W2        3668            0.0000000000
     10914      3638  TIP3      H2            -34.3092205324      -28.5764748050       13.7462800322  W2        3668            0.0000000000
     10915      3639  TIP3      OH2           -27.3863005324      -25.5894248050        6.5204400322  W2        3669            0.0000000000
     10916      3639  TIP3      H1            -27.6814605324      -24.7626348050        6.9019200322  W2        3669            0.0000000000
     10917      3639  TIP3      H2            -28.0893005324      -26.2087348050        6.7165800322  W2        3669            0.0000000000
     10918      3640  TIP3      OH2           -20.0108105324      -32.1571848050        7.0496500322  W2        3673            0.0000000000
     10919      3640  TIP3      H1            -20.5651805324      -32.5533848050        6.3774000322  W2        3673            0.0000000000
     10920      3640  TIP3      H2            -19.9104505324      -31.2466648050        6.7719800322  W2        3673            0.0000000000
     10921      3641  TIP3      OH2           -21.7156405324      -23.3711448050        7.5148600322  W2        3675            0.0000000000
     10922      3641  TIP3      H1            -22.0885305324      -24.1967648050        7.8239200322  W2        3675            0.0000000000
     10923      3641  TIP3      H2            -21.4382905324      -23.5542048050        6.6172000322  W2        3675            0.0000000000
     10924      3642  TIP3      OH2           -24.5552505324      -28.5631948050       14.5360500322  W2        3676            0.0000000000
     10925      3642  TIP3      H1            -25.4835605324      -28.7950048050       14.5089800322  W2        3676            0.0000000000
     10926      3642  TIP3      H2            -24.1041405324      -29.3402148050       14.2059300322  W2        3676            0.0000000000
     10927      3643  TIP3      OH2           -32.0119405324      -24.2350348050       10.6689200322  W2        3677            0.0000000000
     10928      3643  TIP3      H1            -31.4847205324      -23.4615948050       10.4688000322  W2        3677            0.0000000000
     10929      3643  TIP3      H2            -32.8920905324      -24.0101148050       10.3673200322  W2        3677            0.0000000000
     10930      3644  TIP3      OH2           -36.2571705324      -29.3726248050        5.2561600322  W2        3678            0.0000000000
     10931      3644  TIP3      H1            -35.6411805324      -28.7459048050        5.6356400322  W2        3678            0.0000000000
     10932      3644  TIP3      H2            -37.1189105324      -29.0566448050        5.5278100322  W2        3678            0.0000000000
     10933      3645  TIP3      OH2           -30.5847105324      -26.5720448050       10.2453500322  W2        3679            0.0000000000
     10934      3645  TIP3      H1            -30.8257105324      -25.6466048050       10.2868800322  W2        3679            0.0000000000
     10935      3645  TIP3      H2            -31.3253505324      -27.0309148050       10.6417400322  W2        3679            0.0000000000
     10936      3646  TIP3      OH2           -31.9016305324      -21.5502848050        9.7905700322  W2        3681            0.0000000000
     10937      3646  TIP3      H1            -32.8515805324      -21.4445448050        9.8419000322  W2        3681            0.0000000000
     10938      3646  TIP3      H2            -31.5498205324      -20.7295448050       10.1353200322  W2        3681            0.0000000000
     10939      3647  TIP3      OH2           -24.3230805324      -25.3945648050        5.3349200322  W2        3683            0.0000000000
     10940      3647  TIP3      H1            -23.9697705324      -25.7745848050        6.1392700322  W2        3683            0.0000000000
     10941      3647  TIP3      H2            -25.2717305324      -25.4880848050        5.4218500322  W2        3683            0.0000000000
     10942      3648  TIP3      OH2           -19.8196405324      -20.9153148050        5.5359400322  W2        3685            0.0000000000
     10943      3648  TIP3      H1            -19.0758505324      -20.3292648050        5.3961000322  W2        3685            0.0000000000
     10944      3648  TIP3      H2            -20.5138305324      -20.3467348050        5.8691800322  W2        3685            0.0000000000
     10945      3649  TIP3      OH2           -23.4571505324      -26.7223648050        7.5617100322  W2        3687            0.0000000000
     10946      3649  TIP3      H1            -23.7343905324      -27.4504348050        8.1178200322  W2        3687            0.0000000000
     10947      3649  TIP3      H2            -22.5298505324      -26.6031648050        7.7669700322  W2        3687            0.0000000000
     10948      3650  TIP3      OH2           -30.2323005324      -24.2829548050        3.7819200322  W2        3689            0.0000000000
     10949      3650  TIP3      H1            -29.9933205324      -25.0311448050        3.2348100322  W2        3689            0.0000000000
     10950      3650  TIP3      H2            -30.5011705324      -24.6707848050        4.6147000322  W2        3689            0.0000000000
     10951      3651  TIP3      OH2           -31.2952405324      -24.7125748050        6.2381800322  W2        3690            0.0000000000
     10952      3651  TIP3      H1            -31.1484405324      -25.2325948050        7.0282700322  W2        3690            0.0000000000
     10953      3651  TIP3      H2            -31.2980705324      -23.8058148050        6.5447700322  W2        3690            0.0000000000
     10954      3652  TIP3      OH2           -34.8421305324      -27.4602448050        6.7487200322  W2        3691            0.0000000000
     10955      3652  TIP3      H1            -35.5282005324      -27.1079948050        7.3156900322  W2        3691            0.0000000000
     10956      3652  TIP3      H2            -34.3193405324      -26.6972848050        6.5021500322  W2        3691            0.0000000000
     10957      3653  TIP3      OH2           -26.2261305324      -35.1456948050        8.1248500322  W2        3693            0.0000000000
     10958      3653  TIP3      H1            -26.0063005324      -34.6741548050        7.3213900322  W2        3693            0.0000000000
     10959      3653  TIP3      H2            -25.6677305324      -34.7514348050        8.7949100322  W2        3693            0.0000000000
     10960      3654  TIP3      OH2           -28.5575205324      -23.0152148050        6.9876000322  W2        3694            0.0000000000
     10961      3654  TIP3      H1            -29.3739105324      -22.5182448050        7.0400300322  W2        3694            0.0000000000
     10962      3654  TIP3      H2            -28.0278905324      -22.5398648050        6.3474800322  W2        3694            0.0000000000
     10963      3655  TIP3      OH2           -29.0261405324      -33.4178148050        8.9596900322  W2        3695            0.0000000000
     10964      3655  TIP3      H1            -28.2138805324      -32.9134948050        9.0058600322  W2        3695            0.0000000000
     10965      3655  TIP3      H2            -29.2708405324      -33.5628448050        9.8736500322  W2        3695            0.0000000000
     10966      3656  TIP3      OH2           -28.1424705324      -36.3365148050        9.8978000322  W2        3697            0.0000000000
     10967      3656  TIP3      H1            -28.4891205324      -35.7194548050       10.5422300322  W2        3697            0.0000000000
     10968      3656  TIP3      H2            -27.4837805324      -35.8359448050        9.4163500322  W2        3697            0.0000000000
     10969      3657  TIP3      OH2           -31.2192105324      -21.9714948050        6.9692900322  W2        3698            0.0000000000
     10970      3657  TIP3      H1            -31.0583405324      -21.1717448050        6.4685500322  W2        3698            0.0000000000
     10971      3657  TIP3      H2            -31.4164305324      -21.6648948050        7.8543500322  W2        3698            0.0000000000
     10972      3658  TIP3      OH2           -32.4847705324      -35.2735748050        6.5850500322  W2        3699            0.0000000000
     10973      3658  TIP3      H1            -32.5682905324      -34.3852648050        6.9316900322  W2        3699            0.0000000000
     10974      3658  TIP3      H2            -31.5947405324      -35.5389048050        6.8167300322  W2        3699            0.0000000000
     10975      3659  TIP3      OH2           -23.6838205324      -30.7744148050       13.0750500322  W2        3701            0.0000000000
     10976      3659  TIP3      H1            -24.4813805324      -31.1893948050       12.7465500322  W2        3701            0.0000000000
     10977      3659  TIP3      H2            -23.2387105324      -31.4650448050       13.5661000322  W2        3701            0.0000000000
     10978      3660  TIP3      OH2           -34.2262405324      -24.8463548050        5.6455000322  W2        3702            0.0000000000
     10979      3660  TIP3      H1            -33.6340905324      -24.1468748050        5.9217400322  W2        3702            0.0000000000
     10980      3660  TIP3      H2            -33.7669405324      -25.2794048050        4.9259600322  W2        3702            0.0000000000
     10981      3661  TIP3      OH2           -35.9103205324      -32.1820548050        4.7614400322  W2        3703            0.0000000000
     10982      3661  TIP3      H1            -35.9550605324      -31.2427448050        4.9401400322  W2        3703            0.0000000000
     10983      3661  TIP3      H2            -36.7980005324      -32.4175648050        4.4916500322  W2        3703            0.0000000000
     10984      3662  TIP3      OH2           -22.5973605324      -21.5181648050       14.6974000322  W2        3704            0.0000000000
     10985      3662  TIP3      H1            -22.7529305324      -20.8397248050       14.0403300322  W2        3704            0.0000000000
     10986      3662  TIP3      H2            -21.6647205324      -21.4462348050       14.9004600322  W2        3704            0.0000000000
     10987      3663  TIP3      OH2           -35.1021205324      -37.4003948050       13.4345400322  W2        3705            0.0000000000
     10988      3663  TIP3      H1            -35.3311405324      -37.3411448050       12.5070400322  W2        3705            0.0000000000
     10989      3663  TIP3      H2            -35.5447805324      -38.1918448050       13.7409500322  W2        3705            0.0000000000
     10990      3664  TIP3      OH2           -36.1717905324      -23.4596848050        9.5951200322  W2        3706            0.0000000000
     10991      3664  TIP3      H1            -37.0039305324      -22.9874148050        9.6222600322  W2        3706            0.0000000000
     10992      3664  TIP3      H2            -35.6259605324      -22.9499248050        8.9964300322  W2        3706            0.0000000000
     10993      3665  TIP3      OH2           -28.1941205324      -22.4198148050        3.9205200322  W2        3709            0.0000000000
     10994      3665  TIP3      H1            -28.8380205324      -23.0509548050        4.2418900322  W2        3709            0.0000000000
     10995      3665  TIP3      H2            -27.4322905324      -22.9510148050        3.6888700322  W2        3709            0.0000000000
     10996      3666  TIP3      OH2           -23.5898305324      -22.6028248050        4.1543200322  W2        3711            0.0000000000
     10997      3666  TIP3      H1            -23.3067905324      -23.3973048050        4.6070100322  W2        3711            0.0000000000
     10998      3666  TIP3      H2            -22.8500405324      -22.3697248050        3.5934300322  W2        3711            0.0000000000
     10999      3667  TIP3      OH2           -32.6351005324      -26.6933348050        4.0118100322  W2        3713            0.0000000000
     11000      3667  TIP3      H1            -32.5706905324      -27.4873748050        4.5424500322  W2        3713            0.0000000000
     11001      3667  TIP3      H2            -31.9821805324      -26.8120548050        3.3220100322  W2        3713            0.0000000000
     11002      3668  TIP3      OH2           -27.2827605324      -25.6461648050        3.7476100322  W2        3715            0.0000000000
     11003      3668  TIP3      H1            -27.5513505324      -25.4659548050        4.6485000322  W2        3715            0.0000000000
     11004      3668  TIP3      H2            -27.4892005324      -26.5715448050        3.6161900322  W2        3715            0.0000000000
     11005      3669  TIP3      OH2           -31.4857205324      -28.7207148050        6.3176100322  W2        3718            0.0000000000
     11006      3669  TIP3      H1            -31.9455205324      -29.2048848050        7.0034600322  W2        3718            0.0000000000
     11007      3669  TIP3      H2            -31.2308505324      -29.3891748050        5.6816600322  W2        3718            0.0000000000
     11008      3670  TIP3      OH2           -30.4146805324      -30.4775348050        4.5799300322  W2        3720            0.0000000000
     11009      3670  TIP3      H1            -30.5951805324      -30.6324148050        3.6527600322  W2        3720            0.0000000000
     11010      3670  TIP3      H2            -29.4646305324      -30.3696648050        4.6247200322  W2        3720            0.0000000000
     11011      3671  TIP3      OH2           -21.0248505324      -28.1231148050        4.0257400322  W2        3722            0.0000000000
     11012      3671  TIP3      H1            -21.2983705324      -28.5475648050        3.2125700322  W2        3722            0.0000000000
     11013      3671  TIP3      H2            -20.9854405324      -27.1916648050        3.8087800322  W2        3722            0.0000000000
     11014      3672  TIP3      OH2           -30.5175105324      -19.7871648050        5.5812900322  W2        3736            0.0000000000
     11015      3672  TIP3      H1            -29.5844405324      -19.6292948050        5.7251300322  W2        3736            0.0000000000
     11016      3672  TIP3      H2            -30.7816305324      -19.1118648050        4.9564400322  W2        3736            0.0000000000
     11017      3673  TIP3      OH2           -36.9490205324      -25.1507848050        5.0641000322  W2        3737            0.0000000000
     11018      3673  TIP3      H1            -36.0351005324      -25.0718948050        5.3374900322  W2        3737            0.0000000000
     11019      3673  TIP3      H2            -36.9417105324      -25.8378248050        4.3976600322  W2        3737            0.0000000000
     11020      3674  TIP3      OH2           -38.2999605324      -19.7579348050       10.1414900322  W2        3738            0.0000000000
     11021      3674  TIP3      H1            -38.9472505324      -20.2197648050        9.6086100322  W2        3738            0.0000000000
     11022      3674  TIP3      H2            -37.9455005324      -20.4296048050       10.7241100322  W2        3738            0.0000000000
     11023      3675  TIP3      OH2           -37.4300405324      -21.6772348050       11.9461100322  W2        3739            0.0000000000
     11024      3675  TIP3      H1            -37.7643605324      -22.5575048050       12.1181300322  W2        3739            0.0000000000
     11025      3675  TIP3      H2            -37.2078005324      -21.3317348050       12.8106700322  W2        3739            0.0000000000
     11026      3676  TIP3      OH2           -20.5665705324      -27.2543048050        8.0007800322  W2        3743            0.0000000000
     11027      3676  TIP3      H1            -19.7164305324      -26.8332148050        8.1279400322  W2        3743            0.0000000000
     11028      3676  TIP3      H2            -20.5610605324      -27.9942948050        8.6079200322  W2        3743            0.0000000000
     11029      3677  TIP3      OH2           -20.1720105324      -29.2005648050        9.8243500322  W2        3744            0.0000000000
     11030      3677  TIP3      H1            -20.8985505324      -29.6803048050       10.2221100322  W2        3744            0.0000000000
     11031      3677  TIP3      H2            -19.5906805324      -28.9950948050       10.5565100322  W2        3744            0.0000000000
     11032      3678  TIP3      OH2           -20.4128905324      -26.4158148050       14.7721100322  W2        3745            0.0000000000
     11033      3678  TIP3      H1            -19.5794705324      -26.7938148050       14.4914700322  W2        3745            0.0000000000
     11034      3678  TIP3      H2            -20.3008605324      -25.4726948050       14.6530200322  W2        3745            0.0000000000
     11035      3679  TIP3      OH2           -19.9037005324      -29.2997148050        6.2154800322  W2        3747            0.0000000000
     11036      3679  TIP3      H1            -20.4255905324      -28.9433048050        5.4965700322  W2        3747            0.0000000000
     11037      3679  TIP3      H2            -19.9367805324      -28.6249348050        6.8935700322  W2        3747            0.0000000000
     11038      3680  TIP3      OH2           -21.5548005324      -32.0601548050        4.7661900322  W2        3748            0.0000000000
     11039      3680  TIP3      H1            -21.4583605324      -31.3934548050        4.0861600322  W2        3748            0.0000000000
     11040      3680  TIP3      H2            -21.6948405324      -32.8755248050        4.2847400322  W2        3748            0.0000000000
     11041      3681  TIP3      OH2           -22.3853305324      -30.6799148050       10.3872200322  W2        3749            0.0000000000
     11042      3681  TIP3      H1            -22.5354505324      -31.6250548050       10.3670000322  W2        3749            0.0000000000
     11043      3681  TIP3      H2            -22.7388805324      -30.3987748050       11.2311300322  W2        3749            0.0000000000
     11044      3682  TIP3      OH2           -37.3500905324      -28.6016948050       14.3976000322  W2        3750            0.0000000000
     11045      3682  TIP3      H1            -37.1658005324      -28.6835248050       13.4618900322  W2        3750            0.0000000000
     11046      3682  TIP3      H2            -36.5008005324      -28.7259948050       14.8212400322  W2        3750            0.0000000000
     11047      3683  TIP3      OH2           -22.3074205324      -34.6521748050        3.8837400322  W2        3753            0.0000000000
     11048      3683  TIP3      H1            -21.6968405324      -35.0234948050        4.5205600322  W2        3753            0.0000000000
     11049      3683  TIP3      H2            -23.1442705324      -35.0734848050        4.0797400322  W2        3753            0.0000000000
     11050      3684  TIP3      OH2           -22.6748505324      -33.0973348050        8.8497300322  W2        3754            0.0000000000
     11051      3684  TIP3      H1            -22.3951405324      -34.0042948050        8.9739000322  W2        3754            0.0000000000
     11052      3684  TIP3      H2            -21.9156805324      -32.6631848050        8.4606500322  W2        3754            0.0000000000
     11053      3685  TIP3      OH2           -22.0630205324      -32.5155948050       14.2856200322  W2        3755            0.0000000000
     11054      3685  TIP3      H1            -21.1302205324      -32.3036048050       14.2512200322  W2        3755            0.0000000000
     11055      3685  TIP3      H2            -22.2982705324      -32.4143848050       15.2079200322  W2        3755            0.0000000000
     11056      3686  TIP3      OH2           -22.0613705324      -35.8344048050        8.8979300322  W2        3759            0.0000000000
     11057      3686  TIP3      H1            -21.8788705324      -36.2832548050        9.7234300322  W2        3759            0.0000000000
     11058      3686  TIP3      H2            -22.6610805324      -36.4189648050        8.4343900322  W2        3759            0.0000000000
     11059      3687  TIP3      OH2           -36.5313605324      -35.0190348050       13.4297700322  W2        3760            0.0000000000
     11060      3687  TIP3      H1            -36.0862005324      -35.8107848050       13.7317400322  W2        3760            0.0000000000
     11061      3687  TIP3      H2            -36.0650605324      -34.3025148050       13.8603300322  W2        3760            0.0000000000
     11062      3688  TIP3      OH2           -38.2273305324      -32.0197348050       14.4987900322  W2        3761            0.0000000000
     11063      3688  TIP3      H1            -37.7353505324      -32.2406848050       13.7079900322  W2        3761            0.0000000000
     11064      3688  TIP3      H2            -37.8652405324      -31.1793948050       14.7797400322  W2        3761            0.0000000000
     11065      3689  TIP3      OH2           -20.1947505324      -35.7665948050        5.4259600322  W2        3763            0.0000000000
     11066      3689  TIP3      H1            -19.7824905324      -36.4880248050        4.9507600322  W2        3763            0.0000000000
     11067      3689  TIP3      H2            -19.5131005324      -35.0971348050        5.4843900322  W2        3763            0.0000000000
     11068      3690  TIP3      OH2           -37.9136805324      -35.7618248050        8.5530300322  W2        3764            0.0000000000
     11069      3690  TIP3      H1            -38.8388405324      -35.5531648050        8.4235800322  W2        3764            0.0000000000
     11070      3690  TIP3      H2            -37.4596905324      -35.2777448050        7.8632600322  W2        3764            0.0000000000
     11071      3691  TIP3      OH2           -23.1429605324      -20.7776548050       10.4987700322  W2        3765            0.0000000000
     11072      3691  TIP3      H1            -22.4906705324      -21.1254448050        9.8906800322  W2        3765            0.0000000000
     11073      3691  TIP3      H2            -22.6325805324      -20.2893348050       11.1447400322  W2        3765            0.0000000000
     11074      3692  TIP3      OH2           -35.9874405324      -20.9947548050       14.2579700322  W2        3777            0.0000000000
     11075      3692  TIP3      H1            -36.0058405324      -21.4202448050       15.1152000322  W2        3777            0.0000000000
     11076      3692  TIP3      H2            -35.1826505324      -21.3132548050       13.8491900322  W2        3777            0.0000000000
     11077      3693  TIP3      OH2           -33.8461305324      -22.2848848050       12.9129600322  W2        3778            0.0000000000
     11078      3693  TIP3      H1            -34.0650605324      -23.2011448050       13.0825600322  W2        3778            0.0000000000
     11079      3693  TIP3      H2            -33.0219105324      -22.1448448050       13.3791000322  W2        3778            0.0000000000
     11080      3694  TIP3      OH2           -31.3088805324      -21.8149548050       13.7617600322  W2        3779            0.0000000000
     11081      3694  TIP3      H1            -31.0963105324      -22.7030548050       13.4748500322  W2        3779            0.0000000000
     11082      3694  TIP3      H2            -31.2443705324      -21.8491848050       14.7161600322  W2        3779            0.0000000000
     11083      3695  TIP3      OH2           -27.8005105324      -36.1508948050       12.9060900322  W2        3780            0.0000000000
     11084      3695  TIP3      H1            -28.4748305324      -36.7803348050       13.1616700322  W2        3780            0.0000000000
     11085      3695  TIP3      H2            -27.2365905324      -36.6350048050       12.3028800322  W2        3780            0.0000000000
     11086      3696  TIP3      OH2           -22.6577905324      -38.0434948050       13.0188000322  W2        3781            0.0000000000
     11087      3696  TIP3      H1            -22.0540305324      -37.4959548050       12.5169000322  W2        3781            0.0000000000
     11088      3696  TIP3      H2            -23.5275905324      -37.7244548050       12.7782100322  W2        3781            0.0000000000
     11089      3697  TIP3      OH2           -20.9307505324      -36.9046248050       11.3518900322  W2        3782            0.0000000000
     11090      3697  TIP3      H1            -20.3190005324      -37.4190548050       10.8252500322  W2        3782            0.0000000000
     11091      3697  TIP3      H2            -20.5484105324      -36.0274148050       11.3753300322  W2        3782            0.0000000000
     11092      3698  TIP3      OH2           -35.4737605324      -37.5168648050       10.7280800322  W2        3783            0.0000000000
     11093      3698  TIP3      H1            -36.2507805324      -37.7513748050       10.2206700322  W2        3783            0.0000000000
     11094      3698  TIP3      H2            -34.9434005324      -38.3136548050       10.7368800322  W2        3783            0.0000000000
     11095      3699  TIP3      OH2           -36.6374205324      -37.7190548050        6.5316900322  W2        3784            0.0000000000
     11096      3699  TIP3      H1            -36.1983505324      -37.1080048050        5.9400400322  W2        3784            0.0000000000
     11097      3699  TIP3      H2            -37.2711805324      -37.1806448050        7.0056900322  W2        3784            0.0000000000
     11098      3700  TIP3      OH2           -30.8945005324      -37.5901548050       10.5413900322  W2        3785            0.0000000000
     11099      3700  TIP3      H1            -30.0201605324      -37.2017248050       10.5118200322  W2        3785            0.0000000000
     11100      3700  TIP3      H2            -31.0304205324      -37.8053748050       11.4641100322  W2        3785            0.0000000000
     11101      3701  TIP3      OH2           -25.3376605324      -37.5601748050       12.1905600322  W2        3786            0.0000000000
     11102      3701  TIP3      H1            -25.2615005324      -37.4650148050       11.2411600322  W2        3786            0.0000000000
     11103      3701  TIP3      H2            -25.6127405324      -38.4678848050       12.3194700322  W2        3786            0.0000000000
     11104      3702  TIP3      OH2           -23.9844005324      -37.5343948050        7.8830600322  W2        3787            0.0000000000
     11105      3702  TIP3      H1            -24.6872905324      -36.9194748050        7.6732000322  W2        3787            0.0000000000
     11106      3702  TIP3      H2            -24.4292605324      -38.3717248050        8.0141500322  W2        3787            0.0000000000
     11107      3703  TIP3      OH2           -36.7364705324      -21.7708348050        7.4292000322  W2        3788            0.0000000000
     11108      3703  TIP3      H1            -37.4214805324      -21.8089448050        6.7617100322  W2        3788            0.0000000000
     11109      3703  TIP3      H2            -36.7327505324      -20.8580748050        7.7174100322  W2        3788            0.0000000000
     11110      3704  TIP3      OH2           -34.7765105324      -35.8029048050        4.9741000322  W2        3789            0.0000000000
     11111      3704  TIP3      H1            -34.2851705324      -36.4326648050        4.4466500322  W2        3789            0.0000000000
     11112      3704  TIP3      H2            -34.1528805324      -35.5069648050        5.6372200322  W2        3789            0.0000000000
     11113      3705  TIP3      OH2           -29.7505005324      -35.5097548050        7.4311500322  W2        3790            0.0000000000
     11114      3705  TIP3      H1            -29.5723705324      -36.1564348050        8.1140100322  W2        3790            0.0000000000
     11115      3705  TIP3      H2            -29.8038805324      -34.6759848050        7.8982600322  W2        3790            0.0000000000
     11116      3706  TIP3      OH2           -27.8721205324      -20.5613448050        5.8268200322  W2        3791            0.0000000000
     11117      3706  TIP3      H1            -27.0061005324      -20.1946048050        5.6486400322  W2        3791            0.0000000000
     11118      3706  TIP3      H2            -28.1188405324      -21.0005448050        5.0129000322  W2        3791            0.0000000000
     11119      3707  TIP3      OH2           -21.1631605324      -20.9983148050        8.5059300322  W2        3792            0.0000000000
     11120      3707  TIP3      H1            -21.3574505324      -21.7461048050        7.9408900322  W2        3792            0.0000000000
     11121      3707  TIP3      H2            -21.2021505324      -20.2403048050        7.9227200322  W2        3792            0.0000000000
     11122      3708  TIP3      OH2           -34.9183505324      -20.8507548050        4.4544100322  W2        3795            0.0000000000
     11123      3708  TIP3      H1            -35.1858905324      -20.5644648050        5.3277200322  W2        3795            0.0000000000
     11124      3708  TIP3      H2            -34.1470905324      -21.3968348050        4.6066600322  W2        3795            0.0000000000
     11125      3709  TIP3      OH2            -7.5395005324      -28.3606348050       10.6868300322  W2        3798            0.0000000000
     11126      3709  TIP3      H1             -7.4503905324      -27.4168148050       10.5545400322  W2        3798            0.0000000000
     11127      3709  TIP3      H2             -8.1777405324      -28.6359948050       10.0287700322  W2        3798            0.0000000000
     11128      3710  TIP3      OH2            -8.6063705324      -29.1055648050       14.1056500322  W2        3799            0.0000000000
     11129      3710  TIP3      H1             -8.6446205324      -29.7519348050       14.8106100322  W2        3799            0.0000000000
     11130      3710  TIP3      H2             -8.9287205324      -29.5721248050       13.3345200322  W2        3799            0.0000000000
     11131      3711  TIP3      OH2            -4.9003505324      -26.1665248050       12.4071600322  W2        3801            0.0000000000
     11132      3711  TIP3      H1             -5.3410805324      -26.8869248050       12.8577200322  W2        3801            0.0000000000
     11133      3711  TIP3      H2             -4.9133805324      -25.4458048050       13.0369300322  W2        3801            0.0000000000
     11134      3712  TIP3      OH2           -15.3145605324      -25.0414648050       14.2335500322  W2        3802            0.0000000000
     11135      3712  TIP3      H1            -15.6840405324      -25.8434148050       13.8639800322  W2        3802            0.0000000000
     11136      3712  TIP3      H2            -14.3734505324      -25.2099748050       14.2798900322  W2        3802            0.0000000000
     11137      3713  TIP3      OH2           -18.7045105324      -31.3812048050        9.6264300322  W2        3803            0.0000000000
     11138      3713  TIP3      H1            -19.1521705324      -30.5353348050        9.6080800322  W2        3803            0.0000000000
     11139      3713  TIP3      H2            -19.2653905324      -31.9607848050        9.1109400322  W2        3803            0.0000000000
     11140      3714  TIP3      OH2           -17.9939005324      -29.2192448050       11.7522300322  W2        3804            0.0000000000
     11141      3714  TIP3      H1            -17.7805505324      -29.9890848050       12.2795300322  W2        3804            0.0000000000
     11142      3714  TIP3      H2            -17.2561405324      -29.1295748050       11.1489900322  W2        3804            0.0000000000
     11143      3715  TIP3      OH2            -7.7888005324      -21.0623548050       12.6192000322  W2        3805            0.0000000000
     11144      3715  TIP3      H1             -7.1691605324      -21.7388848050       12.3461200322  W2        3805            0.0000000000
     11145      3715  TIP3      H2             -7.9970605324      -21.2802748050       13.5276900322  W2        3805            0.0000000000
     11146      3716  TIP3      OH2           -10.2169305324      -26.6734248050       14.5117500322  W2        3806            0.0000000000
     11147      3716  TIP3      H1             -9.9131405324      -27.3592848050       13.9171600322  W2        3806            0.0000000000
     11148      3716  TIP3      H2             -9.4955305324      -26.5545548050       15.1295500322  W2        3806            0.0000000000
     11149      3717  TIP3      OH2            -7.0762305324      -32.2791848050       14.8392300322  W2        3808            0.0000000000
     11150      3717  TIP3      H1             -6.9336405324      -33.2254848050       14.8593900322  W2        3808            0.0000000000
     11151      3717  TIP3      H2             -7.1823305324      -32.0722048050       13.9107200322  W2        3808            0.0000000000
     11152      3718  TIP3      OH2           -13.9214005324      -34.1775448050       12.1117100322  W2        3809            0.0000000000
     11153      3718  TIP3      H1            -13.8782905324      -33.3176948050       11.6933400322  W2        3809            0.0000000000
     11154      3718  TIP3      H2            -14.3789905324      -34.7300748050       11.4780300322  W2        3809            0.0000000000
     11155      3719  TIP3      OH2            -6.1991305324      -34.0469848050       10.5125400322  W2        3810            0.0000000000
     11156      3719  TIP3      H1             -5.5527005324      -34.3756648050       11.1373000322  W2        3810            0.0000000000
     11157      3719  TIP3      H2             -5.6891905324      -33.5290848050        9.8896800322  W2        3810            0.0000000000
     11158      3720  TIP3      OH2           -17.3012505324      -31.7809648050       12.8738500322  W2        3811            0.0000000000
     11159      3720  TIP3      H1            -16.6475905324      -32.3307948050       13.3058600322  W2        3811            0.0000000000
     11160      3720  TIP3      H2            -17.2773205324      -32.0550648050       11.9570500322  W2        3811            0.0000000000
     11161      3721  TIP3      OH2           -12.1448005324      -30.2308348050       12.0890000322  W2        3812            0.0000000000
     11162      3721  TIP3      H1            -11.5287005324      -30.7572948050       12.5984000322  W2        3812            0.0000000000
     11163      3721  TIP3      H2            -12.7309205324      -30.8709648050       11.6853600322  W2        3812            0.0000000000
     11164      3722  TIP3      OH2            -7.7422305324      -25.7595948050        9.7297000322  W2        3815            0.0000000000
     11165      3722  TIP3      H1             -8.0377205324      -26.0823648050        8.8783900322  W2        3815            0.0000000000
     11166      3722  TIP3      H2             -8.0664505324      -24.8599248050        9.7709600322  W2        3815            0.0000000000
     11167      3723  TIP3      OH2            -4.4352905324      -34.7560548050       12.4931300322  W2        3817            0.0000000000
     11168      3723  TIP3      H1             -4.6504905324      -35.5217148050       13.0257300322  W2        3817            0.0000000000
     11169      3723  TIP3      H2             -3.7795505324      -34.2835948050       13.0059800322  W2        3817            0.0000000000
     11170      3724  TIP3      OH2           -15.5174805324      -33.3675248050       14.1380100322  W2        3818            0.0000000000
     11171      3724  TIP3      H1            -14.9038505324      -32.7347648050       14.5112500322  W2        3818            0.0000000000
     11172      3724  TIP3      H2            -15.0054105324      -33.8400248050       13.4817000322  W2        3818            0.0000000000
     11173      3725  TIP3      OH2           -18.0135505324      -25.9490448050        8.0422400322  W2        3820            0.0000000000
     11174      3725  TIP3      H1            -18.2854605324      -25.7199448050        7.1535300322  W2        3820            0.0000000000
     11175      3725  TIP3      H2            -17.9679805324      -25.1111648050        8.5027700322  W2        3820            0.0000000000
     11176      3726  TIP3      OH2            -4.3885805324      -24.3274548050       14.7550900322  W2        3821            0.0000000000
     11177      3726  TIP3      H1             -5.3302105324      -24.2690648050       14.9167800322  W2        3821            0.0000000000
     11178      3726  TIP3      H2             -4.1119705324      -23.4214048050       14.6180600322  W2        3821            0.0000000000
     11179      3727  TIP3      OH2           -11.0847405324      -37.9541948050       13.6382800322  W2        3823            0.0000000000
     11180      3727  TIP3      H1            -11.2023205324      -38.9025948050       13.5841100322  W2        3823            0.0000000000
     11181      3727  TIP3      H2            -11.9397305324      -37.6215848050       13.9113900322  W2        3823            0.0000000000
     11182      3728  TIP3      OH2            -6.1364605324      -22.5461048050       11.3802500322  W2        3824            0.0000000000
     11183      3728  TIP3      H1             -5.7112305324      -23.2533148050       10.8952100322  W2        3824            0.0000000000
     11184      3728  TIP3      H2             -5.8194605324      -21.7448348050       10.9634700322  W2        3824            0.0000000000
     11185      3729  TIP3      OH2            -4.9768105324      -24.6452548050        9.8889100322  W2        3825            0.0000000000
     11186      3729  TIP3      H1             -5.2343305324      -25.3352448050        9.2775000322  W2        3825            0.0000000000
     11187      3729  TIP3      H2             -4.9057305324      -25.0881348050       10.7345000322  W2        3825            0.0000000000
     11188      3730  TIP3      OH2            -8.8182505324      -29.1166348050        8.1388600322  W2        3827            0.0000000000
     11189      3730  TIP3      H1             -9.5297005324      -28.5816648050        7.7869100322  W2        3827            0.0000000000
     11190      3730  TIP3      H2             -8.1272905324      -29.0614248050        7.4787500322  W2        3827            0.0000000000
     11191      3731  TIP3      OH2            -8.7643305324      -30.6592048050        5.1773600322  W2        3828            0.0000000000
     11192      3731  TIP3      H1             -8.0633405324      -30.6365148050        5.8287600322  W2        3828            0.0000000000
     11193      3731  TIP3      H2             -8.4620405324      -31.2872348050        4.5212900322  W2        3828            0.0000000000
     11194      3732  TIP3      OH2            -5.4124805324      -28.9073048050        9.0904500322  W2        3830            0.0000000000
     11195      3732  TIP3      H1             -6.1443805324      -28.6789348050        9.6635100322  W2        3830            0.0000000000
     11196      3732  TIP3      H2             -4.9652605324      -29.6210348050        9.5452000322  W2        3830            0.0000000000
     11197      3733  TIP3      OH2           -13.7671105324      -28.2766848050       10.9729500322  W2        3832            0.0000000000
     11198      3733  TIP3      H1            -14.0975905324      -28.6473448050       10.1546500322  W2        3832            0.0000000000
     11199      3733  TIP3      H2            -13.1787005324      -28.9472848050       11.3197800322  W2        3832            0.0000000000
     11200      3734  TIP3      OH2           -12.4003605324      -24.8486248050       13.6541700322  W2        3833            0.0000000000
     11201      3734  TIP3      H1            -12.4952305324      -25.4273148050       12.8976300322  W2        3833            0.0000000000
     11202      3734  TIP3      H2            -11.6710005324      -25.2200548050       14.1504500322  W2        3833            0.0000000000
     11203      3735  TIP3      OH2           -13.4005605324      -29.5081248050       14.6064500322  W2        3834            0.0000000000
     11204      3735  TIP3      H1            -12.8353105324      -29.3867048050       13.8435700322  W2        3834            0.0000000000
     11205      3735  TIP3      H2            -13.0816705324      -28.8706248050       15.2453000322  W2        3834            0.0000000000
     11206      3736  TIP3      OH2            -6.5415305324      -29.7450148050        6.7755700322  W2        3837            0.0000000000
     11207      3736  TIP3      H1             -5.9619805324      -29.5949848050        7.5224600322  W2        3837            0.0000000000
     11208      3736  TIP3      H2             -6.1275305324      -29.2742748050        6.0522100322  W2        3837            0.0000000000
     11209      3737  TIP3      OH2            -8.8150405324      -23.0081648050       10.2108800322  W2        3839            0.0000000000
     11210      3737  TIP3      H1             -8.3412805324      -22.7125348050       10.9883000322  W2        3839            0.0000000000
     11211      3737  TIP3      H2             -9.3781105324      -22.2700048050        9.9778400322  W2        3839            0.0000000000
     11212      3738  TIP3      OH2            -2.8426905324      -37.9949748050        6.5885400322  W2        3841            0.0000000000
     11213      3738  TIP3      H1             -3.7426205324      -37.8560748050        6.8836000322  W2        3841            0.0000000000
     11214      3738  TIP3      H2             -2.5908505324      -37.1635148050        6.1867100322  W2        3841            0.0000000000
     11215      3739  TIP3      OH2           -14.7768405324      -29.2072548050        8.5622300322  W2        3842            0.0000000000
     11216      3739  TIP3      H1            -15.0687105324      -28.4390848050        8.0713600322  W2        3842            0.0000000000
     11217      3739  TIP3      H2            -15.4513205324      -29.8666348050        8.3993700322  W2        3842            0.0000000000
     11218      3740  TIP3      OH2            -1.6535505324      -23.6287348050        4.9649300322  W2        3843            0.0000000000
     11219      3740  TIP3      H1             -1.5802005324      -22.6897148050        5.1354600322  W2        3843            0.0000000000
     11220      3740  TIP3      H2             -0.7480405324      -23.9338748050        4.9086600322  W2        3843            0.0000000000
     11221      3741  TIP3      OH2           -18.9335605324      -24.0639548050       14.2612300322  W2        3845            0.0000000000
     11222      3741  TIP3      H1            -17.9875005324      -24.2082548050       14.2421800322  W2        3845            0.0000000000
     11223      3741  TIP3      H2            -19.0459305324      -23.2796748050       14.7983500322  W2        3845            0.0000000000
     11224      3742  TIP3      OH2            -9.3427305324      -20.0516948050        8.6258000322  W2        3848            0.0000000000
     11225      3742  TIP3      H1             -9.4181305324      -20.1729748050        7.6793200322  W2        3848            0.0000000000
     11226      3742  TIP3      H2             -9.3098605324      -19.1024248050        8.7442600322  W2        3848            0.0000000000
     11227      3743  TIP3      OH2           -15.6893505324      -21.2629948050       10.4067000322  W2        3849            0.0000000000
     11228      3743  TIP3      H1            -15.5373105324      -21.6109548050       11.2853500322  W2        3849            0.0000000000
     11229      3743  TIP3      H2            -16.5403105324      -21.6192648050       10.1514200322  W2        3849            0.0000000000
     11230      3744  TIP3      OH2            -6.2411305324      -20.8976748050        5.6280400322  W2        3850            0.0000000000
     11231      3744  TIP3      H1             -5.8662905324      -21.6420648050        5.1573000322  W2        3850            0.0000000000
     11232      3744  TIP3      H2             -6.2367605324      -21.1676148050        6.5463700322  W2        3850            0.0000000000
     11233      3745  TIP3      OH2            -6.5723205324      -20.9719648050        8.3772600322  W2        3851            0.0000000000
     11234      3745  TIP3      H1             -7.5073405324      -20.8717748050        8.5559600322  W2        3851            0.0000000000
     11235      3745  TIP3      H2             -6.2921305324      -21.6813648050        8.9555800322  W2        3851            0.0000000000
     11236      3746  TIP3      OH2           -13.8159805324      -37.0507448050       14.4159100322  W2        3854            0.0000000000
     11237      3746  TIP3      H1            -14.6776105324      -37.1379248050       14.0082000322  W2        3854            0.0000000000
     11238      3746  TIP3      H2            -13.8384105324      -36.1947348050       14.8436700322  W2        3854            0.0000000000
     11239      3747  TIP3      OH2            -5.0642205324      -28.7121848050        4.4053600322  W2        3857            0.0000000000
     11240      3747  TIP3      H1             -5.0221405324      -28.9347948050        3.4753600322  W2        3857            0.0000000000
     11241      3747  TIP3      H2             -4.2150105324      -28.3134748050        4.5953500322  W2        3857            0.0000000000
     11242      3748  TIP3      OH2            -9.4914705324      -34.8363648050        5.0756900322  W2        3858            0.0000000000
     11243      3748  TIP3      H1             -9.7449905324      -34.8172048050        5.9985000322  W2        3858            0.0000000000
     11244      3748  TIP3      H2             -9.7482605324      -35.7078248050        4.7743100322  W2        3858            0.0000000000
     11245      3749  TIP3      OH2           -13.7280605324      -31.8642848050       10.4229300322  W2        3860            0.0000000000
     11246      3749  TIP3      H1            -14.6207705324      -32.2046748050       10.3643100322  W2        3860            0.0000000000
     11247      3749  TIP3      H2            -13.2774005324      -32.2411948050        9.6672500322  W2        3860            0.0000000000
     11248      3750  TIP3      OH2            -8.1925105324      -31.4482548050        9.2400100322  W2        3861            0.0000000000
     11249      3750  TIP3      H1             -8.6014805324      -30.6333948050        8.9484900322  W2        3861            0.0000000000
     11250      3750  TIP3      H2             -7.4718905324      -31.5882448050        8.6257200322  W2        3861            0.0000000000
     11251      3751  TIP3      OH2            -7.1877405324      -32.0022148050       12.0539800322  W2        3863            0.0000000000
     11252      3751  TIP3      H1             -7.3832905324      -31.3965348050       11.3390400322  W2        3863            0.0000000000
     11253      3751  TIP3      H2             -7.0064805324      -32.8356948050       11.6196100322  W2        3863            0.0000000000
     11254      3752  TIP3      OH2           -12.6091805324      -34.3907148050        4.1767300322  W2        3865            0.0000000000
     11255      3752  TIP3      H1            -13.0401105324      -34.8357048050        4.9064700322  W2        3865            0.0000000000
     11256      3752  TIP3      H2            -13.3273105324      -34.0190848050        3.6644800322  W2        3865            0.0000000000
     11257      3753  TIP3      OH2           -19.3668405324      -34.6487648050       11.2286000322  W2        3866            0.0000000000
     11258      3753  TIP3      H1            -18.7360705324      -34.6775548050       11.9479900322  W2        3866            0.0000000000
     11259      3753  TIP3      H2            -18.9174105324      -35.0738948050       10.4981900322  W2        3866            0.0000000000
     11260      3754  TIP3      OH2           -18.0926305324      -33.9025648050        6.6526400322  W2        3867            0.0000000000
     11261      3754  TIP3      H1            -17.6184605324      -33.3115748050        6.0677300322  W2        3867            0.0000000000
     11262      3754  TIP3      H2            -18.8099905324      -33.3722748050        6.9996500322  W2        3867            0.0000000000
     11263      3755  TIP3      OH2           -11.1465305324      -34.4365348050       11.5093400322  W2        3869            0.0000000000
     11264      3755  TIP3      H1            -12.0574205324      -34.3798548050       11.7979400322  W2        3869            0.0000000000
     11265      3755  TIP3      H2            -10.6412405324      -34.4969848050       12.3200600322  W2        3869            0.0000000000
     11266      3756  TIP3      OH2           -16.3181905324      -32.8079048050       10.3361000322  W2        3870            0.0000000000
     11267      3756  TIP3      H1            -17.2073905324      -32.7083548050        9.9960600322  W2        3870            0.0000000000
     11268      3756  TIP3      H2            -16.0217005324      -33.6496048050        9.9898900322  W2        3870            0.0000000000
     11269      3757  TIP3      OH2           -12.6650105324      -32.8076448050        7.9925600322  W2        3871            0.0000000000
     11270      3757  TIP3      H1            -11.7334605324      -32.6786448050        8.1708700322  W2        3871            0.0000000000
     11271      3757  TIP3      H2            -12.8799805324      -32.1382148050        7.3430300322  W2        3871            0.0000000000
     11272      3758  TIP3      OH2            -6.7413405324      -35.2019048050       14.7735200322  W2        3872            0.0000000000
     11273      3758  TIP3      H1             -7.4181805324      -35.0705948050       15.4374900322  W2        3872            0.0000000000
     11274      3758  TIP3      H2             -7.2268505324      -35.3569548050       13.9632900322  W2        3872            0.0000000000
     11275      3759  TIP3      OH2           -13.9909905324      -31.6134248050        5.5591700322  W2        3873            0.0000000000
     11276      3759  TIP3      H1            -14.5334805324      -31.9930448050        4.8679300322  W2        3873            0.0000000000
     11277      3759  TIP3      H2            -13.1575005324      -31.4189548050        5.1305800322  W2        3873            0.0000000000
     11278      3760  TIP3      OH2            -9.8265605324      -31.6492348050       13.3963000322  W2        3876            0.0000000000
     11279      3760  TIP3      H1             -9.2622205324      -32.1955748050       12.8492600322  W2        3876            0.0000000000
     11280      3760  TIP3      H2             -9.9742205324      -32.1710448050       14.1850600322  W2        3876            0.0000000000
     11281      3761  TIP3      OH2           -14.8245905324      -35.5126248050        9.8147800322  W2        3877            0.0000000000
     11282      3761  TIP3      H1            -15.1416405324      -36.4150948050        9.7793200322  W2        3877            0.0000000000
     11283      3761  TIP3      H2            -14.0431805324      -35.5108848050        9.2619400322  W2        3877            0.0000000000
     11284      3762  TIP3      OH2           -10.6557105324      -27.0478548050        7.4949800322  W2        3879            0.0000000000
     11285      3762  TIP3      H1            -11.4006105324      -27.5553248050        7.1727700322  W2        3879            0.0000000000
     11286      3762  TIP3      H2            -10.7899905324      -26.9990548050        8.4414600322  W2        3879            0.0000000000
     11287      3763  TIP3      OH2            -6.7580305324      -34.2338648050        5.6942400322  W2        3881            0.0000000000
     11288      3763  TIP3      H1             -7.6966105324      -34.1223048050        5.5431200322  W2        3881            0.0000000000
     11289      3763  TIP3      H2             -6.4608205324      -33.3771748050        6.0008100322  W2        3881            0.0000000000
     11290      3764  TIP3      OH2            -6.0396805324      -32.3665948050        7.3549800322  W2        3883            0.0000000000
     11291      3764  TIP3      H1             -5.1477805324      -32.5040948050        7.6741000322  W2        3883            0.0000000000
     11292      3764  TIP3      H2             -5.9833205324      -31.5759848050        6.8183300322  W2        3883            0.0000000000
     11293      3765  TIP3      OH2           -15.5308805324      -27.7528548050       13.2647700322  W2        3884            0.0000000000
     11294      3765  TIP3      H1            -14.7861605324      -27.7552848050       12.6634200322  W2        3884            0.0000000000
     11295      3765  TIP3      H2            -15.4532205324      -28.5764748050       13.7462800322  W2        3884            0.0000000000
     11296      3766  TIP3      OH2            -8.5303005324      -25.5894248050        6.5204400322  W2        3885            0.0000000000
     11297      3766  TIP3      H1             -8.8254605324      -24.7626348050        6.9019200322  W2        3885            0.0000000000
     11298      3766  TIP3      H2             -9.2333005324      -26.2087348050        6.7165800322  W2        3885            0.0000000000
     11299      3767  TIP3      OH2            -1.1548105324      -32.1571848050        7.0496500322  W2        3889            0.0000000000
     11300      3767  TIP3      H1             -1.7091805324      -32.5533848050        6.3774000322  W2        3889            0.0000000000
     11301      3767  TIP3      H2             -1.0544505324      -31.2466648050        6.7719800322  W2        3889            0.0000000000
     11302      3768  TIP3      OH2            -2.8596405324      -23.3711448050        7.5148600322  W2        3891            0.0000000000
     11303      3768  TIP3      H1             -3.2325305324      -24.1967648050        7.8239200322  W2        3891            0.0000000000
     11304      3768  TIP3      H2             -2.5822905324      -23.5542048050        6.6172000322  W2        3891            0.0000000000
     11305      3769  TIP3      OH2            -5.6992505324      -28.5631948050       14.5360500322  W2        3892            0.0000000000
     11306      3769  TIP3      H1             -6.6275605324      -28.7950048050       14.5089800322  W2        3892            0.0000000000
     11307      3769  TIP3      H2             -5.2481405324      -29.3402148050       14.2059300322  W2        3892            0.0000000000
     11308      3770  TIP3      OH2           -13.1559405324      -24.2350348050       10.6689200322  W2        3893            0.0000000000
     11309      3770  TIP3      H1            -12.6287205324      -23.4615948050       10.4688000322  W2        3893            0.0000000000
     11310      3770  TIP3      H2            -14.0360905324      -24.0101148050       10.3673200322  W2        3893            0.0000000000
     11311      3771  TIP3      OH2           -17.4011705324      -29.3726248050        5.2561600322  W2        3894            0.0000000000
     11312      3771  TIP3      H1            -16.7851805324      -28.7459048050        5.6356400322  W2        3894            0.0000000000
     11313      3771  TIP3      H2            -18.2629105324      -29.0566448050        5.5278100322  W2        3894            0.0000000000
     11314      3772  TIP3      OH2           -11.7287105324      -26.5720448050       10.2453500322  W2        3895            0.0000000000
     11315      3772  TIP3      H1            -11.9697105324      -25.6466048050       10.2868800322  W2        3895            0.0000000000
     11316      3772  TIP3      H2            -12.4693505324      -27.0309148050       10.6417400322  W2        3895            0.0000000000
     11317      3773  TIP3      OH2           -13.0456305324      -21.5502848050        9.7905700322  W2        3897            0.0000000000
     11318      3773  TIP3      H1            -13.9955805324      -21.4445448050        9.8419000322  W2        3897            0.0000000000
     11319      3773  TIP3      H2            -12.6938205324      -20.7295448050       10.1353200322  W2        3897            0.0000000000
     11320      3774  TIP3      OH2            -5.4670805324      -25.3945648050        5.3349200322  W2        3899            0.0000000000
     11321      3774  TIP3      H1             -5.1137705324      -25.7745848050        6.1392700322  W2        3899            0.0000000000
     11322      3774  TIP3      H2             -6.4157305324      -25.4880848050        5.4218500322  W2        3899            0.0000000000
     11323      3775  TIP3      OH2            -0.9636405324      -20.9153148050        5.5359400322  W2        3901            0.0000000000
     11324      3775  TIP3      H1             -0.2198505324      -20.3292648050        5.3961000322  W2        3901            0.0000000000
     11325      3775  TIP3      H2             -1.6578305324      -20.3467348050        5.8691800322  W2        3901            0.0000000000
     11326      3776  TIP3      OH2            -4.6011505324      -26.7223648050        7.5617100322  W2        3903            0.0000000000
     11327      3776  TIP3      H1             -4.8783905324      -27.4504348050        8.1178200322  W2        3903            0.0000000000
     11328      3776  TIP3      H2             -3.6738505324      -26.6031648050        7.7669700322  W2        3903            0.0000000000
     11329      3777  TIP3      OH2           -11.3763005324      -24.2829548050        3.7819200322  W2        3905            0.0000000000
     11330      3777  TIP3      H1            -11.1373205324      -25.0311448050        3.2348100322  W2        3905            0.0000000000
     11331      3777  TIP3      H2            -11.6451705324      -24.6707848050        4.6147000322  W2        3905            0.0000000000
     11332      3778  TIP3      OH2           -12.4392405324      -24.7125748050        6.2381800322  W2        3906            0.0000000000
     11333      3778  TIP3      H1            -12.2924405324      -25.2325948050        7.0282700322  W2        3906            0.0000000000
     11334      3778  TIP3      H2            -12.4420705324      -23.8058148050        6.5447700322  W2        3906            0.0000000000
     11335      3779  TIP3      OH2           -15.9861305324      -27.4602448050        6.7487200322  W2        3907            0.0000000000
     11336      3779  TIP3      H1            -16.6722005324      -27.1079948050        7.3156900322  W2        3907            0.0000000000
     11337      3779  TIP3      H2            -15.4633405324      -26.6972848050        6.5021500322  W2        3907            0.0000000000
     11338      3780  TIP3      OH2            -7.3701305324      -35.1456948050        8.1248500322  W2        3909            0.0000000000
     11339      3780  TIP3      H1             -7.1503005324      -34.6741548050        7.3213900322  W2        3909            0.0000000000
     11340      3780  TIP3      H2             -6.8117305324      -34.7514348050        8.7949100322  W2        3909            0.0000000000
     11341      3781  TIP3      OH2            -9.7015205324      -23.0152148050        6.9876000322  W2        3910            0.0000000000
     11342      3781  TIP3      H1            -10.5179105324      -22.5182448050        7.0400300322  W2        3910            0.0000000000
     11343      3781  TIP3      H2             -9.1718905324      -22.5398648050        6.3474800322  W2        3910            0.0000000000
     11344      3782  TIP3      OH2           -10.1701405324      -33.4178148050        8.9596900322  W2        3911            0.0000000000
     11345      3782  TIP3      H1             -9.3578805324      -32.9134948050        9.0058600322  W2        3911            0.0000000000
     11346      3782  TIP3      H2            -10.4148405324      -33.5628448050        9.8736500322  W2        3911            0.0000000000
     11347      3783  TIP3      OH2            -9.2864705324      -36.3365148050        9.8978000322  W2        3913            0.0000000000
     11348      3783  TIP3      H1             -9.6331205324      -35.7194548050       10.5422300322  W2        3913            0.0000000000
     11349      3783  TIP3      H2             -8.6277805324      -35.8359448050        9.4163500322  W2        3913            0.0000000000
     11350      3784  TIP3      OH2           -12.3632105324      -21.9714948050        6.9692900322  W2        3914            0.0000000000
     11351      3784  TIP3      H1            -12.2023405324      -21.1717448050        6.4685500322  W2        3914            0.0000000000
     11352      3784  TIP3      H2            -12.5604305324      -21.6648948050        7.8543500322  W2        3914            0.0000000000
     11353      3785  TIP3      OH2           -13.6287705324      -35.2735748050        6.5850500322  W2        3915            0.0000000000
     11354      3785  TIP3      H1            -13.7122905324      -34.3852648050        6.9316900322  W2        3915            0.0000000000
     11355      3785  TIP3      H2            -12.7387405324      -35.5389048050        6.8167300322  W2        3915            0.0000000000
     11356      3786  TIP3      OH2            -4.8278205324      -30.7744148050       13.0750500322  W2        3917            0.0000000000
     11357      3786  TIP3      H1             -5.6253805324      -31.1893948050       12.7465500322  W2        3917            0.0000000000
     11358      3786  TIP3      H2             -4.3827105324      -31.4650448050       13.5661000322  W2        3917            0.0000000000
     11359      3787  TIP3      OH2           -15.3702405324      -24.8463548050        5.6455000322  W2        3918            0.0000000000
     11360      3787  TIP3      H1            -14.7780905324      -24.1468748050        5.9217400322  W2        3918            0.0000000000
     11361      3787  TIP3      H2            -14.9109405324      -25.2794048050        4.9259600322  W2        3918            0.0000000000
     11362      3788  TIP3      OH2           -17.0543205324      -32.1820548050        4.7614400322  W2        3919            0.0000000000
     11363      3788  TIP3      H1            -17.0990605324      -31.2427448050        4.9401400322  W2        3919            0.0000000000
     11364      3788  TIP3      H2            -17.9420005324      -32.4175648050        4.4916500322  W2        3919            0.0000000000
     11365      3789  TIP3      OH2            -3.7413605324      -21.5181648050       14.6974000322  W2        3920            0.0000000000
     11366      3789  TIP3      H1             -3.8969305324      -20.8397248050       14.0403300322  W2        3920            0.0000000000
     11367      3789  TIP3      H2             -2.8087205324      -21.4462348050       14.9004600322  W2        3920            0.0000000000
     11368      3790  TIP3      OH2           -16.2461205324      -37.4003948050       13.4345400322  W2        3921            0.0000000000
     11369      3790  TIP3      H1            -16.4751405324      -37.3411448050       12.5070400322  W2        3921            0.0000000000
     11370      3790  TIP3      H2            -16.6887805324      -38.1918448050       13.7409500322  W2        3921            0.0000000000
     11371      3791  TIP3      OH2           -17.3157905324      -23.4596848050        9.5951200322  W2        3922            0.0000000000
     11372      3791  TIP3      H1            -18.1479305324      -22.9874148050        9.6222600322  W2        3922            0.0000000000
     11373      3791  TIP3      H2            -16.7699605324      -22.9499248050        8.9964300322  W2        3922            0.0000000000
     11374      3792  TIP3      OH2            -9.3381205324      -22.4198148050        3.9205200322  W2        3925            0.0000000000
     11375      3792  TIP3      H1             -9.9820205324      -23.0509548050        4.2418900322  W2        3925            0.0000000000
     11376      3792  TIP3      H2             -8.5762905324      -22.9510148050        3.6888700322  W2        3925            0.0000000000
     11377      3793  TIP3      OH2            -4.7338305324      -22.6028248050        4.1543200322  W2        3927            0.0000000000
     11378      3793  TIP3      H1             -4.4507905324      -23.3973048050        4.6070100322  W2        3927            0.0000000000
     11379      3793  TIP3      H2             -3.9940405324      -22.3697248050        3.5934300322  W2        3927            0.0000000000
     11380      3794  TIP3      OH2           -13.7791005324      -26.6933348050        4.0118100322  W2        3929            0.0000000000
     11381      3794  TIP3      H1            -13.7146905324      -27.4873748050        4.5424500322  W2        3929            0.0000000000
     11382      3794  TIP3      H2            -13.1261805324      -26.8120548050        3.3220100322  W2        3929            0.0000000000
     11383      3795  TIP3      OH2            -8.4267605324      -25.6461648050        3.7476100322  W2        3931            0.0000000000
     11384      3795  TIP3      H1             -8.6953505324      -25.4659548050        4.6485000322  W2        3931            0.0000000000
     11385      3795  TIP3      H2             -8.6332005324      -26.5715448050        3.6161900322  W2        3931            0.0000000000
     11386      3796  TIP3      OH2           -12.6297205324      -28.7207148050        6.3176100322  W2        3934            0.0000000000
     11387      3796  TIP3      H1            -13.0895205324      -29.2048848050        7.0034600322  W2        3934            0.0000000000
     11388      3796  TIP3      H2            -12.3748505324      -29.3891748050        5.6816600322  W2        3934            0.0000000000
     11389      3797  TIP3      OH2           -11.5586805324      -30.4775348050        4.5799300322  W2        3936            0.0000000000
     11390      3797  TIP3      H1            -11.7391805324      -30.6324148050        3.6527600322  W2        3936            0.0000000000
     11391      3797  TIP3      H2            -10.6086305324      -30.3696648050        4.6247200322  W2        3936            0.0000000000
     11392      3798  TIP3      OH2            -2.1688505324      -28.1231148050        4.0257400322  W2        3938            0.0000000000
     11393      3798  TIP3      H1             -2.4423705324      -28.5475648050        3.2125700322  W2        3938            0.0000000000
     11394      3798  TIP3      H2             -2.1294405324      -27.1916648050        3.8087800322  W2        3938            0.0000000000
     11395      3799  TIP3      OH2           -11.6615105324      -19.7871648050        5.5812900322  W2        3952            0.0000000000
     11396      3799  TIP3      H1            -10.7284405324      -19.6292948050        5.7251300322  W2        3952            0.0000000000
     11397      3799  TIP3      H2            -11.9256305324      -19.1118648050        4.9564400322  W2        3952            0.0000000000
     11398      3800  TIP3      OH2           -18.0930205324      -25.1507848050        5.0641000322  W2        3953            0.0000000000
     11399      3800  TIP3      H1            -17.1791005324      -25.0718948050        5.3374900322  W2        3953            0.0000000000
     11400      3800  TIP3      H2            -18.0857105324      -25.8378248050        4.3976600322  W2        3953            0.0000000000
     11401      3801  TIP3      OH2           -19.4439605324      -19.7579348050       10.1414900322  W2        3954            0.0000000000
     11402      3801  TIP3      H1            -20.0912505324      -20.2197648050        9.6086100322  W2        3954            0.0000000000
     11403      3801  TIP3      H2            -19.0895005324      -20.4296048050       10.7241100322  W2        3954            0.0000000000
     11404      3802  TIP3      OH2           -18.5740405324      -21.6772348050       11.9461100322  W2        3955            0.0000000000
     11405      3802  TIP3      H1            -18.9083605324      -22.5575048050       12.1181300322  W2        3955            0.0000000000
     11406      3802  TIP3      H2            -18.3518005324      -21.3317348050       12.8106700322  W2        3955            0.0000000000
     11407      3803  TIP3      OH2            -1.7105705324      -27.2543048050        8.0007800322  W2        3959            0.0000000000
     11408      3803  TIP3      H1             -0.8604305324      -26.8332148050        8.1279400322  W2        3959            0.0000000000
     11409      3803  TIP3      H2             -1.7050605324      -27.9942948050        8.6079200322  W2        3959            0.0000000000
     11410      3804  TIP3      OH2            -1.3160105324      -29.2005648050        9.8243500322  W2        3960            0.0000000000
     11411      3804  TIP3      H1             -2.0425505324      -29.6803048050       10.2221100322  W2        3960            0.0000000000
     11412      3804  TIP3      H2             -0.7346805324      -28.9950948050       10.5565100322  W2        3960            0.0000000000
     11413      3805  TIP3      OH2            -1.5568905324      -26.4158148050       14.7721100322  W2        3961            0.0000000000
     11414      3805  TIP3      H1             -0.7234705324      -26.7938148050       14.4914700322  W2        3961            0.0000000000
     11415      3805  TIP3      H2             -1.4448605324      -25.4726948050       14.6530200322  W2        3961            0.0000000000
     11416      3806  TIP3      OH2            -1.0477005324      -29.2997148050        6.2154800322  W2        3963            0.0000000000
     11417      3806  TIP3      H1             -1.5695905324      -28.9433048050        5.4965700322  W2        3963            0.0000000000
     11418      3806  TIP3      H2             -1.0807805324      -28.6249348050        6.8935700322  W2        3963            0.0000000000
     11419      3807  TIP3      OH2            -2.6988005324      -32.0601548050        4.7661900322  W2        3964            0.0000000000
     11420      3807  TIP3      H1             -2.6023605324      -31.3934548050        4.0861600322  W2        3964            0.0000000000
     11421      3807  TIP3      H2             -2.8388405324      -32.8755248050        4.2847400322  W2        3964            0.0000000000
     11422      3808  TIP3      OH2            -3.5293305324      -30.6799148050       10.3872200322  W2        3965            0.0000000000
     11423      3808  TIP3      H1             -3.6794505324      -31.6250548050       10.3670000322  W2        3965            0.0000000000
     11424      3808  TIP3      H2             -3.8828805324      -30.3987748050       11.2311300322  W2        3965            0.0000000000
     11425      3809  TIP3      OH2           -18.4940905324      -28.6016948050       14.3976000322  W2        3966            0.0000000000
     11426      3809  TIP3      H1            -18.3098005324      -28.6835248050       13.4618900322  W2        3966            0.0000000000
     11427      3809  TIP3      H2            -17.6448005324      -28.7259948050       14.8212400322  W2        3966            0.0000000000
     11428      3810  TIP3      OH2            -3.4514205324      -34.6521748050        3.8837400322  W2        3969            0.0000000000
     11429      3810  TIP3      H1             -2.8408405324      -35.0234948050        4.5205600322  W2        3969            0.0000000000
     11430      3810  TIP3      H2             -4.2882705324      -35.0734848050        4.0797400322  W2        3969            0.0000000000
     11431      3811  TIP3      OH2            -3.8188505324      -33.0973348050        8.8497300322  W2        3970            0.0000000000
     11432      3811  TIP3      H1             -3.5391405324      -34.0042948050        8.9739000322  W2        3970            0.0000000000
     11433      3811  TIP3      H2             -3.0596805324      -32.6631848050        8.4606500322  W2        3970            0.0000000000
     11434      3812  TIP3      OH2            -3.2070205324      -32.5155948050       14.2856200322  W2        3971            0.0000000000
     11435      3812  TIP3      H1             -2.2742205324      -32.3036048050       14.2512200322  W2        3971            0.0000000000
     11436      3812  TIP3      H2             -3.4422705324      -32.4143848050       15.2079200322  W2        3971            0.0000000000
     11437      3813  TIP3      OH2            -3.2053705324      -35.8344048050        8.8979300322  W2        3975            0.0000000000
     11438      3813  TIP3      H1             -3.0228705324      -36.2832548050        9.7234300322  W2        3975            0.0000000000
     11439      3813  TIP3      H2             -3.8050805324      -36.4189648050        8.4343900322  W2        3975            0.0000000000
     11440      3814  TIP3      OH2           -17.6753605324      -35.0190348050       13.4297700322  W2        3976            0.0000000000
     11441      3814  TIP3      H1            -17.2302005324      -35.8107848050       13.7317400322  W2        3976            0.0000000000
     11442      3814  TIP3      H2            -17.2090605324      -34.3025148050       13.8603300322  W2        3976            0.0000000000
     11443      3815  TIP3      OH2           -19.3713305324      -32.0197348050       14.4987900322  W2        3977            0.0000000000
     11444      3815  TIP3      H1            -18.8793505324      -32.2406848050       13.7079900322  W2        3977            0.0000000000
     11445      3815  TIP3      H2            -19.0092405324      -31.1793948050       14.7797400322  W2        3977            0.0000000000
     11446      3816  TIP3      OH2            -1.3387505324      -35.7665948050        5.4259600322  W2        3979            0.0000000000
     11447      3816  TIP3      H1             -0.9264905324      -36.4880248050        4.9507600322  W2        3979            0.0000000000
     11448      3816  TIP3      H2             -0.6571005324      -35.0971348050        5.4843900322  W2        3979            0.0000000000
     11449      3817  TIP3      OH2           -19.0576805324      -35.7618248050        8.5530300322  W2        3980            0.0000000000
     11450      3817  TIP3      H1            -19.9828405324      -35.5531648050        8.4235800322  W2        3980            0.0000000000
     11451      3817  TIP3      H2            -18.6036905324      -35.2777448050        7.8632600322  W2        3980            0.0000000000
     11452      3818  TIP3      OH2            -4.2869605324      -20.7776548050       10.4987700322  W2        3981            0.0000000000
     11453      3818  TIP3      H1             -3.6346705324      -21.1254448050        9.8906800322  W2        3981            0.0000000000
     11454      3818  TIP3      H2             -3.7765805324      -20.2893348050       11.1447400322  W2        3981            0.0000000000
     11455      3819  TIP3      OH2           -17.1314405324      -20.9947548050       14.2579700322  W2        3993            0.0000000000
     11456      3819  TIP3      H1            -17.1498405324      -21.4202448050       15.1152000322  W2        3993            0.0000000000
     11457      3819  TIP3      H2            -16.3266505324      -21.3132548050       13.8491900322  W2        3993            0.0000000000
     11458      3820  TIP3      OH2           -14.9901305324      -22.2848848050       12.9129600322  W2        3994            0.0000000000
     11459      3820  TIP3      H1            -15.2090605324      -23.2011448050       13.0825600322  W2        3994            0.0000000000
     11460      3820  TIP3      H2            -14.1659105324      -22.1448448050       13.3791000322  W2        3994            0.0000000000
     11461      3821  TIP3      OH2           -12.4528805324      -21.8149548050       13.7617600322  W2        3995            0.0000000000
     11462      3821  TIP3      H1            -12.2403105324      -22.7030548050       13.4748500322  W2        3995            0.0000000000
     11463      3821  TIP3      H2            -12.3883705324      -21.8491848050       14.7161600322  W2        3995            0.0000000000
     11464      3822  TIP3      OH2            -8.9445105324      -36.1508948050       12.9060900322  W2        3996            0.0000000000
     11465      3822  TIP3      H1             -9.6188305324      -36.7803348050       13.1616700322  W2        3996            0.0000000000
     11466      3822  TIP3      H2             -8.3805905324      -36.6350048050       12.3028800322  W2        3996            0.0000000000
     11467      3823  TIP3      OH2            -3.8017905324      -38.0434948050       13.0188000322  W2        3997            0.0000000000
     11468      3823  TIP3      H1             -3.1980305324      -37.4959548050       12.5169000322  W2        3997            0.0000000000
     11469      3823  TIP3      H2             -4.6715905324      -37.7244548050       12.7782100322  W2        3997            0.0000000000
     11470      3824  TIP3      OH2            -2.0747505324      -36.9046248050       11.3518900322  W2        3998            0.0000000000
     11471      3824  TIP3      H1             -1.4630005324      -37.4190548050       10.8252500322  W2        3998            0.0000000000
     11472      3824  TIP3      H2             -1.6924105324      -36.0274148050       11.3753300322  W2        3998            0.0000000000
     11473      3825  TIP3      OH2           -16.6177605324      -37.5168648050       10.7280800322  W2        3999            0.0000000000
     11474      3825  TIP3      H1            -17.3947805324      -37.7513748050       10.2206700322  W2        3999            0.0000000000
     11475      3825  TIP3      H2            -16.0874005324      -38.3136548050       10.7368800322  W2        3999            0.0000000000
     11476      3826  TIP3      OH2           -17.7814205324      -37.7190548050        6.5316900322  W2        4000            0.0000000000
     11477      3826  TIP3      H1            -17.3423505324      -37.1080048050        5.9400400322  W2        4000            0.0000000000
     11478      3826  TIP3      H2            -18.4151805324      -37.1806448050        7.0056900322  W2        4000            0.0000000000
     11479      3827  TIP3      OH2           -12.0385005324      -37.5901548050       10.5413900322  W2        4001            0.0000000000
     11480      3827  TIP3      H1            -11.1641605324      -37.2017248050       10.5118200322  W2        4001            0.0000000000
     11481      3827  TIP3      H2            -12.1744205324      -37.8053748050       11.4641100322  W2        4001            0.0000000000
     11482      3828  TIP3      OH2            -6.4816605324      -37.5601748050       12.1905600322  W2        4002            0.0000000000
     11483      3828  TIP3      H1             -6.4055005324      -37.4650148050       11.2411600322  W2        4002            0.0000000000
     11484      3828  TIP3      H2             -6.7567405324      -38.4678848050       12.3194700322  W2        4002            0.0000000000
     11485      3829  TIP3      OH2            -5.1284005324      -37.5343948050        7.8830600322  W2        4003            0.0000000000
     11486      3829  TIP3      H1             -5.8312905324      -36.9194748050        7.6732000322  W2        4003            0.0000000000
     11487      3829  TIP3      H2             -5.5732605324      -38.3717248050        8.0141500322  W2        4003            0.0000000000
     11488      3830  TIP3      OH2           -17.8804705324      -21.7708348050        7.4292000322  W2        4004            0.0000000000
     11489      3830  TIP3      H1            -18.5654805324      -21.8089448050        6.7617100322  W2        4004            0.0000000000
     11490      3830  TIP3      H2            -17.8767505324      -20.8580748050        7.7174100322  W2        4004            0.0000000000
     11491      3831  TIP3      OH2           -15.9205105324      -35.8029048050        4.9741000322  W2        4005            0.0000000000
     11492      3831  TIP3      H1            -15.4291705324      -36.4326648050        4.4466500322  W2        4005            0.0000000000
     11493      3831  TIP3      H2            -15.2968805324      -35.5069648050        5.6372200322  W2        4005            0.0000000000
     11494      3832  TIP3      OH2           -10.8945005324      -35.5097548050        7.4311500322  W2        4006            0.0000000000
     11495      3832  TIP3      H1            -10.7163705324      -36.1564348050        8.1140100322  W2        4006            0.0000000000
     11496      3832  TIP3      H2            -10.9478805324      -34.6759848050        7.8982600322  W2        4006            0.0000000000
     11497      3833  TIP3      OH2            -9.0161205324      -20.5613448050        5.8268200322  W2        4007            0.0000000000
     11498      3833  TIP3      H1             -8.1501005324      -20.1946048050        5.6486400322  W2        4007            0.0000000000
     11499      3833  TIP3      H2             -9.2628405324      -21.0005448050        5.0129000322  W2        4007            0.0000000000
     11500      3834  TIP3      OH2            -2.3071605324      -20.9983148050        8.5059300322  W2        4008            0.0000000000
     11501      3834  TIP3      H1             -2.5014505324      -21.7461048050        7.9408900322  W2        4008            0.0000000000
     11502      3834  TIP3      H2             -2.3461505324      -20.2403048050        7.9227200322  W2        4008            0.0000000000
     11503      3835  TIP3      OH2           -16.0623505324      -20.8507548050        4.4544100322  W2        4011            0.0000000000
     11504      3835  TIP3      H1            -16.3298905324      -20.5644648050        5.3277200322  W2        4011            0.0000000000
     11505      3835  TIP3      H2            -15.2910905324      -21.3968348050        4.6066600322  W2        4011            0.0000000000
     11506      3836  TIP3      OH2            11.3164994676      -28.3606348050       10.6868300322  W2        4014            0.0000000000
     11507      3836  TIP3      H1             11.4056094676      -27.4168148050       10.5545400322  W2        4014            0.0000000000
     11508      3836  TIP3      H2             10.6782594676      -28.6359948050       10.0287700322  W2        4014            0.0000000000
     11509      3837  TIP3      OH2            10.2496294676      -29.1055648050       14.1056500322  W2        4015            0.0000000000
     11510      3837  TIP3      H1             10.2113794676      -29.7519348050       14.8106100322  W2        4015            0.0000000000
     11511      3837  TIP3      H2              9.9272794676      -29.5721248050       13.3345200322  W2        4015            0.0000000000
     11512      3838  TIP3      OH2            13.9556494676      -26.1665248050       12.4071600322  W2        4017            0.0000000000
     11513      3838  TIP3      H1             13.5149194676      -26.8869248050       12.8577200322  W2        4017            0.0000000000
     11514      3838  TIP3      H2             13.9426194676      -25.4458048050       13.0369300322  W2        4017            0.0000000000
     11515      3839  TIP3      OH2             3.5414394676      -25.0414648050       14.2335500322  W2        4018            0.0000000000
     11516      3839  TIP3      H1              3.1719594676      -25.8434148050       13.8639800322  W2        4018            0.0000000000
     11517      3839  TIP3      H2              4.4825494676      -25.2099748050       14.2798900322  W2        4018            0.0000000000
     11518      3840  TIP3      OH2             0.1514894676      -31.3812048050        9.6264300322  W2        4019            0.0000000000
     11519      3840  TIP3      H1             -0.2961705324      -30.5353348050        9.6080800322  W2        4019            0.0000000000
     11520      3840  TIP3      H2             -0.4093905324      -31.9607848050        9.1109400322  W2        4019            0.0000000000
     11521      3841  TIP3      OH2             0.8620994676      -29.2192448050       11.7522300322  W2        4020            0.0000000000
     11522      3841  TIP3      H1              1.0754494676      -29.9890848050       12.2795300322  W2        4020            0.0000000000
     11523      3841  TIP3      H2              1.5998594676      -29.1295748050       11.1489900322  W2        4020            0.0000000000
     11524      3842  TIP3      OH2            11.0671994676      -21.0623548050       12.6192000322  W2        4021            0.0000000000
     11525      3842  TIP3      H1             11.6868394676      -21.7388848050       12.3461200322  W2        4021            0.0000000000
     11526      3842  TIP3      H2             10.8589394676      -21.2802748050       13.5276900322  W2        4021            0.0000000000
     11527      3843  TIP3      OH2             8.6390694676      -26.6734248050       14.5117500322  W2        4022            0.0000000000
     11528      3843  TIP3      H1              8.9428594676      -27.3592848050       13.9171600322  W2        4022            0.0000000000
     11529      3843  TIP3      H2              9.3604694676      -26.5545548050       15.1295500322  W2        4022            0.0000000000
     11530      3844  TIP3      OH2            11.7797694676      -32.2791848050       14.8392300322  W2        4024            0.0000000000
     11531      3844  TIP3      H1             11.9223594676      -33.2254848050       14.8593900322  W2        4024            0.0000000000
     11532      3844  TIP3      H2             11.6736694676      -32.0722048050       13.9107200322  W2        4024            0.0000000000
     11533      3845  TIP3      OH2             4.9345994676      -34.1775448050       12.1117100322  W2        4025            0.0000000000
     11534      3845  TIP3      H1              4.9777094676      -33.3176948050       11.6933400322  W2        4025            0.0000000000
     11535      3845  TIP3      H2              4.4770094676      -34.7300748050       11.4780300322  W2        4025            0.0000000000
     11536      3846  TIP3      OH2            12.6568694676      -34.0469848050       10.5125400322  W2        4026            0.0000000000
     11537      3846  TIP3      H1             13.3032994676      -34.3756648050       11.1373000322  W2        4026            0.0000000000
     11538      3846  TIP3      H2             13.1668094676      -33.5290848050        9.8896800322  W2        4026            0.0000000000
     11539      3847  TIP3      OH2             1.5547494676      -31.7809648050       12.8738500322  W2        4027            0.0000000000
     11540      3847  TIP3      H1              2.2084094676      -32.3307948050       13.3058600322  W2        4027            0.0000000000
     11541      3847  TIP3      H2              1.5786794676      -32.0550648050       11.9570500322  W2        4027            0.0000000000
     11542      3848  TIP3      OH2             6.7111994676      -30.2308348050       12.0890000322  W2        4028            0.0000000000
     11543      3848  TIP3      H1              7.3272994676      -30.7572948050       12.5984000322  W2        4028            0.0000000000
     11544      3848  TIP3      H2              6.1250794676      -30.8709648050       11.6853600322  W2        4028            0.0000000000
     11545      3849  TIP3      OH2            11.1137694676      -25.7595948050        9.7297000322  W2        4031            0.0000000000
     11546      3849  TIP3      H1             10.8182794676      -26.0823648050        8.8783900322  W2        4031            0.0000000000
     11547      3849  TIP3      H2             10.7895494676      -24.8599248050        9.7709600322  W2        4031            0.0000000000
     11548      3850  TIP3      OH2            14.4207094676      -34.7560548050       12.4931300322  W2        4033            0.0000000000
     11549      3850  TIP3      H1             14.2055094676      -35.5217148050       13.0257300322  W2        4033            0.0000000000
     11550      3850  TIP3      H2             15.0764494676      -34.2835948050       13.0059800322  W2        4033            0.0000000000
     11551      3851  TIP3      OH2             3.3385194676      -33.3675248050       14.1380100322  W2        4034            0.0000000000
     11552      3851  TIP3      H1              3.9521494676      -32.7347648050       14.5112500322  W2        4034            0.0000000000
     11553      3851  TIP3      H2              3.8505894676      -33.8400248050       13.4817000322  W2        4034            0.0000000000
     11554      3852  TIP3      OH2             0.8424494676      -25.9490448050        8.0422400322  W2        4036            0.0000000000
     11555      3852  TIP3      H1              0.5705394676      -25.7199448050        7.1535300322  W2        4036            0.0000000000
     11556      3852  TIP3      H2              0.8880194676      -25.1111648050        8.5027700322  W2        4036            0.0000000000
     11557      3853  TIP3      OH2            14.4674194676      -24.3274548050       14.7550900322  W2        4037            0.0000000000
     11558      3853  TIP3      H1             13.5257894676      -24.2690648050       14.9167800322  W2        4037            0.0000000000
     11559      3853  TIP3      H2             14.7440294676      -23.4214048050       14.6180600322  W2        4037            0.0000000000
     11560      3854  TIP3      OH2             7.7712594676      -37.9541948050       13.6382800322  W2        4039            0.0000000000
     11561      3854  TIP3      H1              7.6536794676      -38.9025948050       13.5841100322  W2        4039            0.0000000000
     11562      3854  TIP3      H2              6.9162694676      -37.6215848050       13.9113900322  W2        4039            0.0000000000
     11563      3855  TIP3      OH2            12.7195394676      -22.5461048050       11.3802500322  W2        4040            0.0000000000
     11564      3855  TIP3      H1             13.1447694676      -23.2533148050       10.8952100322  W2        4040            0.0000000000
     11565      3855  TIP3      H2             13.0365394676      -21.7448348050       10.9634700322  W2        4040            0.0000000000
     11566      3856  TIP3      OH2            13.8791894676      -24.6452548050        9.8889100322  W2        4041            0.0000000000
     11567      3856  TIP3      H1             13.6216694676      -25.3352448050        9.2775000322  W2        4041            0.0000000000
     11568      3856  TIP3      H2             13.9502694676      -25.0881348050       10.7345000322  W2        4041            0.0000000000
     11569      3857  TIP3      OH2            10.0377494676      -29.1166348050        8.1388600322  W2        4043            0.0000000000
     11570      3857  TIP3      H1              9.3262994676      -28.5816648050        7.7869100322  W2        4043            0.0000000000
     11571      3857  TIP3      H2             10.7287094676      -29.0614248050        7.4787500322  W2        4043            0.0000000000
     11572      3858  TIP3      OH2            10.0916694676      -30.6592048050        5.1773600322  W2        4044            0.0000000000
     11573      3858  TIP3      H1             10.7926594676      -30.6365148050        5.8287600322  W2        4044            0.0000000000
     11574      3858  TIP3      H2             10.3939594676      -31.2872348050        4.5212900322  W2        4044            0.0000000000
     11575      3859  TIP3      OH2            13.4435194676      -28.9073048050        9.0904500322  W2        4046            0.0000000000
     11576      3859  TIP3      H1             12.7116194676      -28.6789348050        9.6635100322  W2        4046            0.0000000000
     11577      3859  TIP3      H2             13.8907394676      -29.6210348050        9.5452000322  W2        4046            0.0000000000
     11578      3860  TIP3      OH2             5.0888894676      -28.2766848050       10.9729500322  W2        4048            0.0000000000
     11579      3860  TIP3      H1              4.7584094676      -28.6473448050       10.1546500322  W2        4048            0.0000000000
     11580      3860  TIP3      H2              5.6772994676      -28.9472848050       11.3197800322  W2        4048            0.0000000000
     11581      3861  TIP3      OH2             6.4556394676      -24.8486248050       13.6541700322  W2        4049            0.0000000000
     11582      3861  TIP3      H1              6.3607694676      -25.4273148050       12.8976300322  W2        4049            0.0000000000
     11583      3861  TIP3      H2              7.1849994676      -25.2200548050       14.1504500322  W2        4049            0.0000000000
     11584      3862  TIP3      OH2             5.4554394676      -29.5081248050       14.6064500322  W2        4050            0.0000000000
     11585      3862  TIP3      H1              6.0206894676      -29.3867048050       13.8435700322  W2        4050            0.0000000000
     11586      3862  TIP3      H2              5.7743294676      -28.8706248050       15.2453000322  W2        4050            0.0000000000
     11587      3863  TIP3      OH2            12.3144694676      -29.7450148050        6.7755700322  W2        4053            0.0000000000
     11588      3863  TIP3      H1             12.8940194676      -29.5949848050        7.5224600322  W2        4053            0.0000000000
     11589      3863  TIP3      H2             12.7284694676      -29.2742748050        6.0522100322  W2        4053            0.0000000000
     11590      3864  TIP3      OH2            10.0409594676      -23.0081648050       10.2108800322  W2        4055            0.0000000000
     11591      3864  TIP3      H1             10.5147194676      -22.7125348050       10.9883000322  W2        4055            0.0000000000
     11592      3864  TIP3      H2              9.4778894676      -22.2700048050        9.9778400322  W2        4055            0.0000000000
     11593      3865  TIP3      OH2            16.0133094676      -37.9949748050        6.5885400322  W2        4057            0.0000000000
     11594      3865  TIP3      H1             15.1133794676      -37.8560748050        6.8836000322  W2        4057            0.0000000000
     11595      3865  TIP3      H2             16.2651494676      -37.1635148050        6.1867100322  W2        4057            0.0000000000
     11596      3866  TIP3      OH2             4.0791594676      -29.2072548050        8.5622300322  W2        4058            0.0000000000
     11597      3866  TIP3      H1              3.7872894676      -28.4390848050        8.0713600322  W2        4058            0.0000000000
     11598      3866  TIP3      H2              3.4046794676      -29.8666348050        8.3993700322  W2        4058            0.0000000000
     11599      3867  TIP3      OH2            17.2024494676      -23.6287348050        4.9649300322  W2        4059            0.0000000000
     11600      3867  TIP3      H1             17.2757994676      -22.6897148050        5.1354600322  W2        4059            0.0000000000
     11601      3867  TIP3      H2             18.1079594676      -23.9338748050        4.9086600322  W2        4059            0.0000000000
     11602      3868  TIP3      OH2            -0.0775605324      -24.0639548050       14.2612300322  W2        4061            0.0000000000
     11603      3868  TIP3      H1              0.8684994676      -24.2082548050       14.2421800322  W2        4061            0.0000000000
     11604      3868  TIP3      H2             -0.1899305324      -23.2796748050       14.7983500322  W2        4061            0.0000000000
     11605      3869  TIP3      OH2             9.5132694676      -20.0516948050        8.6258000322  W2        4064            0.0000000000
     11606      3869  TIP3      H1              9.4378694676      -20.1729748050        7.6793200322  W2        4064            0.0000000000
     11607      3869  TIP3      H2              9.5461394676      -19.1024248050        8.7442600322  W2        4064            0.0000000000
     11608      3870  TIP3      OH2             3.1666494676      -21.2629948050       10.4067000322  W2        4065            0.0000000000
     11609      3870  TIP3      H1              3.3186894676      -21.6109548050       11.2853500322  W2        4065            0.0000000000
     11610      3870  TIP3      H2              2.3156894676      -21.6192648050       10.1514200322  W2        4065            0.0000000000
     11611      3871  TIP3      OH2            12.6148694676      -20.8976748050        5.6280400322  W2        4066            0.0000000000
     11612      3871  TIP3      H1             12.9897094676      -21.6420648050        5.1573000322  W2        4066            0.0000000000
     11613      3871  TIP3      H2             12.6192394676      -21.1676148050        6.5463700322  W2        4066            0.0000000000
     11614      3872  TIP3      OH2            12.2836794676      -20.9719648050        8.3772600322  W2        4067            0.0000000000
     11615      3872  TIP3      H1             11.3486594676      -20.8717748050        8.5559600322  W2        4067            0.0000000000
     11616      3872  TIP3      H2             12.5638694676      -21.6813648050        8.9555800322  W2        4067            0.0000000000
     11617      3873  TIP3      OH2             5.0400194676      -37.0507448050       14.4159100322  W2        4070            0.0000000000
     11618      3873  TIP3      H1              4.1783894676      -37.1379248050       14.0082000322  W2        4070            0.0000000000
     11619      3873  TIP3      H2              5.0175894676      -36.1947348050       14.8436700322  W2        4070            0.0000000000
     11620      3874  TIP3      OH2            13.7917794676      -28.7121848050        4.4053600322  W2        4073            0.0000000000
     11621      3874  TIP3      H1             13.8338594676      -28.9347948050        3.4753600322  W2        4073            0.0000000000
     11622      3874  TIP3      H2             14.6409894676      -28.3134748050        4.5953500322  W2        4073            0.0000000000
     11623      3875  TIP3      OH2             9.3645294676      -34.8363648050        5.0756900322  W2        4074            0.0000000000
     11624      3875  TIP3      H1              9.1110094676      -34.8172048050        5.9985000322  W2        4074            0.0000000000
     11625      3875  TIP3      H2              9.1077394676      -35.7078248050        4.7743100322  W2        4074            0.0000000000
     11626      3876  TIP3      OH2             5.1279394676      -31.8642848050       10.4229300322  W2        4076            0.0000000000
     11627      3876  TIP3      H1              4.2352294676      -32.2046748050       10.3643100322  W2        4076            0.0000000000
     11628      3876  TIP3      H2              5.5785994676      -32.2411948050        9.6672500322  W2        4076            0.0000000000
     11629      3877  TIP3      OH2            10.6634894676      -31.4482548050        9.2400100322  W2        4077            0.0000000000
     11630      3877  TIP3      H1             10.2545194676      -30.6333948050        8.9484900322  W2        4077            0.0000000000
     11631      3877  TIP3      H2             11.3841094676      -31.5882448050        8.6257200322  W2        4077            0.0000000000
     11632      3878  TIP3      OH2            11.6682594676      -32.0022148050       12.0539800322  W2        4079            0.0000000000
     11633      3878  TIP3      H1             11.4727094676      -31.3965348050       11.3390400322  W2        4079            0.0000000000
     11634      3878  TIP3      H2             11.8495194676      -32.8356948050       11.6196100322  W2        4079            0.0000000000
     11635      3879  TIP3      OH2             6.2468194676      -34.3907148050        4.1767300322  W2        4081            0.0000000000
     11636      3879  TIP3      H1              5.8158894676      -34.8357048050        4.9064700322  W2        4081            0.0000000000
     11637      3879  TIP3      H2              5.5286894676      -34.0190848050        3.6644800322  W2        4081            0.0000000000
     11638      3880  TIP3      OH2            -0.5108405324      -34.6487648050       11.2286000322  W2        4082            0.0000000000
     11639      3880  TIP3      H1              0.1199294676      -34.6775548050       11.9479900322  W2        4082            0.0000000000
     11640      3880  TIP3      H2             -0.0614105324      -35.0738948050       10.4981900322  W2        4082            0.0000000000
     11641      3881  TIP3      OH2             0.7633694676      -33.9025648050        6.6526400322  W2        4083            0.0000000000
     11642      3881  TIP3      H1              1.2375394676      -33.3115748050        6.0677300322  W2        4083            0.0000000000
     11643      3881  TIP3      H2              0.0460094676      -33.3722748050        6.9996500322  W2        4083            0.0000000000
     11644      3882  TIP3      OH2             7.7094694676      -34.4365348050       11.5093400322  W2        4085            0.0000000000
     11645      3882  TIP3      H1              6.7985794676      -34.3798548050       11.7979400322  W2        4085            0.0000000000
     11646      3882  TIP3      H2              8.2147594676      -34.4969848050       12.3200600322  W2        4085            0.0000000000
     11647      3883  TIP3      OH2             2.5378094676      -32.8079048050       10.3361000322  W2        4086            0.0000000000
     11648      3883  TIP3      H1              1.6486094676      -32.7083548050        9.9960600322  W2        4086            0.0000000000
     11649      3883  TIP3      H2              2.8342994676      -33.6496048050        9.9898900322  W2        4086            0.0000000000
     11650      3884  TIP3      OH2             6.1909894676      -32.8076448050        7.9925600322  W2        4087            0.0000000000
     11651      3884  TIP3      H1              7.1225394676      -32.6786448050        8.1708700322  W2        4087            0.0000000000
     11652      3884  TIP3      H2              5.9760194676      -32.1382148050        7.3430300322  W2        4087            0.0000000000
     11653      3885  TIP3      OH2            12.1146594676      -35.2019048050       14.7735200322  W2        4088            0.0000000000
     11654      3885  TIP3      H1             11.4378194676      -35.0705948050       15.4374900322  W2        4088            0.0000000000
     11655      3885  TIP3      H2             11.6291494676      -35.3569548050       13.9632900322  W2        4088            0.0000000000
     11656      3886  TIP3      OH2             4.8650094676      -31.6134248050        5.5591700322  W2        4089            0.0000000000
     11657      3886  TIP3      H1              4.3225194676      -31.9930448050        4.8679300322  W2        4089            0.0000000000
     11658      3886  TIP3      H2              5.6984994676      -31.4189548050        5.1305800322  W2        4089            0.0000000000
     11659      3887  TIP3      OH2             9.0294394676      -31.6492348050       13.3963000322  W2        4092            0.0000000000
     11660      3887  TIP3      H1              9.5937794676      -32.1955748050       12.8492600322  W2        4092            0.0000000000
     11661      3887  TIP3      H2              8.8817794676      -32.1710448050       14.1850600322  W2        4092            0.0000000000
     11662      3888  TIP3      OH2             4.0314094676      -35.5126248050        9.8147800322  W2        4093            0.0000000000
     11663      3888  TIP3      H1              3.7143594676      -36.4150948050        9.7793200322  W2        4093            0.0000000000
     11664      3888  TIP3      H2              4.8128194676      -35.5108848050        9.2619400322  W2        4093            0.0000000000
     11665      3889  TIP3      OH2             8.2002894676      -27.0478548050        7.4949800322  W2        4095            0.0000000000
     11666      3889  TIP3      H1              7.4553894676      -27.5553248050        7.1727700322  W2        4095            0.0000000000
     11667      3889  TIP3      H2              8.0660094676      -26.9990548050        8.4414600322  W2        4095            0.0000000000
     11668      3890  TIP3      OH2            12.0979694676      -34.2338648050        5.6942400322  W2        4097            0.0000000000
     11669      3890  TIP3      H1             11.1593894676      -34.1223048050        5.5431200322  W2        4097            0.0000000000
     11670      3890  TIP3      H2             12.3951794676      -33.3771748050        6.0008100322  W2        4097            0.0000000000
     11671      3891  TIP3      OH2            12.8163194676      -32.3665948050        7.3549800322  W2        4099            0.0000000000
     11672      3891  TIP3      H1             13.7082194676      -32.5040948050        7.6741000322  W2        4099            0.0000000000
     11673      3891  TIP3      H2             12.8726794676      -31.5759848050        6.8183300322  W2        4099            0.0000000000
     11674      3892  TIP3      OH2             3.3251194676      -27.7528548050       13.2647700322  W2        4100            0.0000000000
     11675      3892  TIP3      H1              4.0698394676      -27.7552848050       12.6634200322  W2        4100            0.0000000000
     11676      3892  TIP3      H2              3.4027794676      -28.5764748050       13.7462800322  W2        4100            0.0000000000
     11677      3893  TIP3      OH2            10.3256994676      -25.5894248050        6.5204400322  W2        4101            0.0000000000
     11678      3893  TIP3      H1             10.0305394676      -24.7626348050        6.9019200322  W2        4101            0.0000000000
     11679      3893  TIP3      H2              9.6226994676      -26.2087348050        6.7165800322  W2        4101            0.0000000000
     11680      3894  TIP3      OH2            17.7011894676      -32.1571848050        7.0496500322  W2        4105            0.0000000000
     11681      3894  TIP3      H1             17.1468194676      -32.5533848050        6.3774000322  W2        4105            0.0000000000
     11682      3894  TIP3      H2             17.8015494676      -31.2466648050        6.7719800322  W2        4105            0.0000000000
     11683      3895  TIP3      OH2            15.9963594676      -23.3711448050        7.5148600322  W2        4107            0.0000000000
     11684      3895  TIP3      H1             15.6234694676      -24.1967648050        7.8239200322  W2        4107            0.0000000000
     11685      3895  TIP3      H2             16.2737094676      -23.5542048050        6.6172000322  W2        4107            0.0000000000
     11686      3896  TIP3      OH2            13.1567494676      -28.5631948050       14.5360500322  W2        4108            0.0000000000
     11687      3896  TIP3      H1             12.2284394676      -28.7950048050       14.5089800322  W2        4108            0.0000000000
     11688      3896  TIP3      H2             13.6078594676      -29.3402148050       14.2059300322  W2        4108            0.0000000000
     11689      3897  TIP3      OH2             5.7000594676      -24.2350348050       10.6689200322  W2        4109            0.0000000000
     11690      3897  TIP3      H1              6.2272794676      -23.4615948050       10.4688000322  W2        4109            0.0000000000
     11691      3897  TIP3      H2              4.8199094676      -24.0101148050       10.3673200322  W2        4109            0.0000000000
     11692      3898  TIP3      OH2             1.4548294676      -29.3726248050        5.2561600322  W2        4110            0.0000000000
     11693      3898  TIP3      H1              2.0708194676      -28.7459048050        5.6356400322  W2        4110            0.0000000000
     11694      3898  TIP3      H2              0.5930894676      -29.0566448050        5.5278100322  W2        4110            0.0000000000
     11695      3899  TIP3      OH2             7.1272894676      -26.5720448050       10.2453500322  W2        4111            0.0000000000
     11696      3899  TIP3      H1              6.8862894676      -25.6466048050       10.2868800322  W2        4111            0.0000000000
     11697      3899  TIP3      H2              6.3866494676      -27.0309148050       10.6417400322  W2        4111            0.0000000000
     11698      3900  TIP3      OH2             5.8103694676      -21.5502848050        9.7905700322  W2        4113            0.0000000000
     11699      3900  TIP3      H1              4.8604194676      -21.4445448050        9.8419000322  W2        4113            0.0000000000
     11700      3900  TIP3      H2              6.1621794676      -20.7295448050       10.1353200322  W2        4113            0.0000000000
     11701      3901  TIP3      OH2            13.3889194676      -25.3945648050        5.3349200322  W2        4115            0.0000000000
     11702      3901  TIP3      H1             13.7422294676      -25.7745848050        6.1392700322  W2        4115            0.0000000000
     11703      3901  TIP3      H2             12.4402694676      -25.4880848050        5.4218500322  W2        4115            0.0000000000
     11704      3902  TIP3      OH2            17.8923594676      -20.9153148050        5.5359400322  W2        4117            0.0000000000
     11705      3902  TIP3      H1             18.6361494676      -20.3292648050        5.3961000322  W2        4117            0.0000000000
     11706      3902  TIP3      H2             17.1981694676      -20.3467348050        5.8691800322  W2        4117            0.0000000000
     11707      3903  TIP3      OH2            14.2548494676      -26.7223648050        7.5617100322  W2        4119            0.0000000000
     11708      3903  TIP3      H1             13.9776094676      -27.4504348050        8.1178200322  W2        4119            0.0000000000
     11709      3903  TIP3      H2             15.1821494676      -26.6031648050        7.7669700322  W2        4119            0.0000000000
     11710      3904  TIP3      OH2             7.4796994676      -24.2829548050        3.7819200322  W2        4121            0.0000000000
     11711      3904  TIP3      H1              7.7186794676      -25.0311448050        3.2348100322  W2        4121            0.0000000000
     11712      3904  TIP3      H2              7.2108294676      -24.6707848050        4.6147000322  W2        4121            0.0000000000
     11713      3905  TIP3      OH2             6.4167594676      -24.7125748050        6.2381800322  W2        4122            0.0000000000
     11714      3905  TIP3      H1              6.5635594676      -25.2325948050        7.0282700322  W2        4122            0.0000000000
     11715      3905  TIP3      H2              6.4139294676      -23.8058148050        6.5447700322  W2        4122            0.0000000000
     11716      3906  TIP3      OH2             2.8698694676      -27.4602448050        6.7487200322  W2        4123            0.0000000000
     11717      3906  TIP3      H1              2.1837994676      -27.1079948050        7.3156900322  W2        4123            0.0000000000
     11718      3906  TIP3      H2              3.3926594676      -26.6972848050        6.5021500322  W2        4123            0.0000000000
     11719      3907  TIP3      OH2            11.4858694676      -35.1456948050        8.1248500322  W2        4125            0.0000000000
     11720      3907  TIP3      H1             11.7056994676      -34.6741548050        7.3213900322  W2        4125            0.0000000000
     11721      3907  TIP3      H2             12.0442694676      -34.7514348050        8.7949100322  W2        4125            0.0000000000
     11722      3908  TIP3      OH2             9.1544794676      -23.0152148050        6.9876000322  W2        4126            0.0000000000
     11723      3908  TIP3      H1              8.3380894676      -22.5182448050        7.0400300322  W2        4126            0.0000000000
     11724      3908  TIP3      H2              9.6841094676      -22.5398648050        6.3474800322  W2        4126            0.0000000000
     11725      3909  TIP3      OH2             8.6858594676      -33.4178148050        8.9596900322  W2        4127            0.0000000000
     11726      3909  TIP3      H1              9.4981194676      -32.9134948050        9.0058600322  W2        4127            0.0000000000
     11727      3909  TIP3      H2              8.4411594676      -33.5628448050        9.8736500322  W2        4127            0.0000000000
     11728      3910  TIP3      OH2             9.5695294676      -36.3365148050        9.8978000322  W2        4129            0.0000000000
     11729      3910  TIP3      H1              9.2228794676      -35.7194548050       10.5422300322  W2        4129            0.0000000000
     11730      3910  TIP3      H2             10.2282194676      -35.8359448050        9.4163500322  W2        4129            0.0000000000
     11731      3911  TIP3      OH2             6.4927894676      -21.9714948050        6.9692900322  W2        4130            0.0000000000
     11732      3911  TIP3      H1              6.6536594676      -21.1717448050        6.4685500322  W2        4130            0.0000000000
     11733      3911  TIP3      H2              6.2955694676      -21.6648948050        7.8543500322  W2        4130            0.0000000000
     11734      3912  TIP3      OH2             5.2272294676      -35.2735748050        6.5850500322  W2        4131            0.0000000000
     11735      3912  TIP3      H1              5.1437094676      -34.3852648050        6.9316900322  W2        4131            0.0000000000
     11736      3912  TIP3      H2              6.1172594676      -35.5389048050        6.8167300322  W2        4131            0.0000000000
     11737      3913  TIP3      OH2            14.0281794676      -30.7744148050       13.0750500322  W2        4133            0.0000000000
     11738      3913  TIP3      H1             13.2306194676      -31.1893948050       12.7465500322  W2        4133            0.0000000000
     11739      3913  TIP3      H2             14.4732894676      -31.4650448050       13.5661000322  W2        4133            0.0000000000
     11740      3914  TIP3      OH2             3.4857594676      -24.8463548050        5.6455000322  W2        4134            0.0000000000
     11741      3914  TIP3      H1              4.0779094676      -24.1468748050        5.9217400322  W2        4134            0.0000000000
     11742      3914  TIP3      H2              3.9450594676      -25.2794048050        4.9259600322  W2        4134            0.0000000000
     11743      3915  TIP3      OH2             1.8016794676      -32.1820548050        4.7614400322  W2        4135            0.0000000000
     11744      3915  TIP3      H1              1.7569394676      -31.2427448050        4.9401400322  W2        4135            0.0000000000
     11745      3915  TIP3      H2              0.9139994676      -32.4175648050        4.4916500322  W2        4135            0.0000000000
     11746      3916  TIP3      OH2            15.1146394676      -21.5181648050       14.6974000322  W2        4136            0.0000000000
     11747      3916  TIP3      H1             14.9590694676      -20.8397248050       14.0403300322  W2        4136            0.0000000000
     11748      3916  TIP3      H2             16.0472794676      -21.4462348050       14.9004600322  W2        4136            0.0000000000
     11749      3917  TIP3      OH2             2.6098794676      -37.4003948050       13.4345400322  W2        4137            0.0000000000
     11750      3917  TIP3      H1              2.3808594676      -37.3411448050       12.5070400322  W2        4137            0.0000000000
     11751      3917  TIP3      H2              2.1672194676      -38.1918448050       13.7409500322  W2        4137            0.0000000000
     11752      3918  TIP3      OH2             1.5402094676      -23.4596848050        9.5951200322  W2        4138            0.0000000000
     11753      3918  TIP3      H1              0.7080694676      -22.9874148050        9.6222600322  W2        4138            0.0000000000
     11754      3918  TIP3      H2              2.0860394676      -22.9499248050        8.9964300322  W2        4138            0.0000000000
     11755      3919  TIP3      OH2             9.5178794676      -22.4198148050        3.9205200322  W2        4141            0.0000000000
     11756      3919  TIP3      H1              8.8739794676      -23.0509548050        4.2418900322  W2        4141            0.0000000000
     11757      3919  TIP3      H2             10.2797094676      -22.9510148050        3.6888700322  W2        4141            0.0000000000
     11758      3920  TIP3      OH2            14.1221694676      -22.6028248050        4.1543200322  W2        4143            0.0000000000
     11759      3920  TIP3      H1             14.4052094676      -23.3973048050        4.6070100322  W2        4143            0.0000000000
     11760      3920  TIP3      H2             14.8619594676      -22.3697248050        3.5934300322  W2        4143            0.0000000000
     11761      3921  TIP3      OH2             5.0768994676      -26.6933348050        4.0118100322  W2        4145            0.0000000000
     11762      3921  TIP3      H1              5.1413094676      -27.4873748050        4.5424500322  W2        4145            0.0000000000
     11763      3921  TIP3      H2              5.7298194676      -26.8120548050        3.3220100322  W2        4145            0.0000000000
     11764      3922  TIP3      OH2            10.4292394676      -25.6461648050        3.7476100322  W2        4147            0.0000000000
     11765      3922  TIP3      H1             10.1606494676      -25.4659548050        4.6485000322  W2        4147            0.0000000000
     11766      3922  TIP3      H2             10.2227994676      -26.5715448050        3.6161900322  W2        4147            0.0000000000
     11767      3923  TIP3      OH2             6.2262794676      -28.7207148050        6.3176100322  W2        4150            0.0000000000
     11768      3923  TIP3      H1              5.7664794676      -29.2048848050        7.0034600322  W2        4150            0.0000000000
     11769      3923  TIP3      H2              6.4811494676      -29.3891748050        5.6816600322  W2        4150            0.0000000000
     11770      3924  TIP3      OH2             7.2973194676      -30.4775348050        4.5799300322  W2        4152            0.0000000000
     11771      3924  TIP3      H1              7.1168194676      -30.6324148050        3.6527600322  W2        4152            0.0000000000
     11772      3924  TIP3      H2              8.2473694676      -30.3696648050        4.6247200322  W2        4152            0.0000000000
     11773      3925  TIP3      OH2            16.6871494676      -28.1231148050        4.0257400322  W2        4154            0.0000000000
     11774      3925  TIP3      H1             16.4136294676      -28.5475648050        3.2125700322  W2        4154            0.0000000000
     11775      3925  TIP3      H2             16.7265594676      -27.1916648050        3.8087800322  W2        4154            0.0000000000
     11776      3926  TIP3      OH2             7.1944894676      -19.7871648050        5.5812900322  W2        4168            0.0000000000
     11777      3926  TIP3      H1              8.1275594676      -19.6292948050        5.7251300322  W2        4168            0.0000000000
     11778      3926  TIP3      H2              6.9303694676      -19.1118648050        4.9564400322  W2        4168            0.0000000000
     11779      3927  TIP3      OH2             0.7629794676      -25.1507848050        5.0641000322  W2        4169            0.0000000000
     11780      3927  TIP3      H1              1.6768994676      -25.0718948050        5.3374900322  W2        4169            0.0000000000
     11781      3927  TIP3      H2              0.7702894676      -25.8378248050        4.3976600322  W2        4169            0.0000000000
     11782      3928  TIP3      OH2            -0.5879605324      -19.7579348050       10.1414900322  W2        4170            0.0000000000
     11783      3928  TIP3      H1             -1.2352505324      -20.2197648050        9.6086100322  W2        4170            0.0000000000
     11784      3928  TIP3      H2             -0.2335005324      -20.4296048050       10.7241100322  W2        4170            0.0000000000
     11785      3929  TIP3      OH2             0.2819594676      -21.6772348050       11.9461100322  W2        4171            0.0000000000
     11786      3929  TIP3      H1             -0.0523605324      -22.5575048050       12.1181300322  W2        4171            0.0000000000
     11787      3929  TIP3      H2              0.5041994676      -21.3317348050       12.8106700322  W2        4171            0.0000000000
     11788      3930  TIP3      OH2            17.1454294676      -27.2543048050        8.0007800322  W2        4175            0.0000000000
     11789      3930  TIP3      H1             17.9955694676      -26.8332148050        8.1279400322  W2        4175            0.0000000000
     11790      3930  TIP3      H2             17.1509394676      -27.9942948050        8.6079200322  W2        4175            0.0000000000
     11791      3931  TIP3      OH2            17.5399894676      -29.2005648050        9.8243500322  W2        4176            0.0000000000
     11792      3931  TIP3      H1             16.8134494676      -29.6803048050       10.2221100322  W2        4176            0.0000000000
     11793      3931  TIP3      H2             18.1213194676      -28.9950948050       10.5565100322  W2        4176            0.0000000000
     11794      3932  TIP3      OH2            17.2991094676      -26.4158148050       14.7721100322  W2        4177            0.0000000000
     11795      3932  TIP3      H1             18.1325294676      -26.7938148050       14.4914700322  W2        4177            0.0000000000
     11796      3932  TIP3      H2             17.4111394676      -25.4726948050       14.6530200322  W2        4177            0.0000000000
     11797      3933  TIP3      OH2            17.8082994676      -29.2997148050        6.2154800322  W2        4179            0.0000000000
     11798      3933  TIP3      H1             17.2864094676      -28.9433048050        5.4965700322  W2        4179            0.0000000000
     11799      3933  TIP3      H2             17.7752194676      -28.6249348050        6.8935700322  W2        4179            0.0000000000
     11800      3934  TIP3      OH2            16.1571994676      -32.0601548050        4.7661900322  W2        4180            0.0000000000
     11801      3934  TIP3      H1             16.2536394676      -31.3934548050        4.0861600322  W2        4180            0.0000000000
     11802      3934  TIP3      H2             16.0171594676      -32.8755248050        4.2847400322  W2        4180            0.0000000000
     11803      3935  TIP3      OH2            15.3266694676      -30.6799148050       10.3872200322  W2        4181            0.0000000000
     11804      3935  TIP3      H1             15.1765494676      -31.6250548050       10.3670000322  W2        4181            0.0000000000
     11805      3935  TIP3      H2             14.9731194676      -30.3987748050       11.2311300322  W2        4181            0.0000000000
     11806      3936  TIP3      OH2             0.3619094676      -28.6016948050       14.3976000322  W2        4182            0.0000000000
     11807      3936  TIP3      H1              0.5461994676      -28.6835248050       13.4618900322  W2        4182            0.0000000000
     11808      3936  TIP3      H2              1.2111994676      -28.7259948050       14.8212400322  W2        4182            0.0000000000
     11809      3937  TIP3      OH2            15.4045794676      -34.6521748050        3.8837400322  W2        4185            0.0000000000
     11810      3937  TIP3      H1             16.0151594676      -35.0234948050        4.5205600322  W2        4185            0.0000000000
     11811      3937  TIP3      H2             14.5677294676      -35.0734848050        4.0797400322  W2        4185            0.0000000000
     11812      3938  TIP3      OH2            15.0371494676      -33.0973348050        8.8497300322  W2        4186            0.0000000000
     11813      3938  TIP3      H1             15.3168594676      -34.0042948050        8.9739000322  W2        4186            0.0000000000
     11814      3938  TIP3      H2             15.7963194676      -32.6631848050        8.4606500322  W2        4186            0.0000000000
     11815      3939  TIP3      OH2            15.6489794676      -32.5155948050       14.2856200322  W2        4187            0.0000000000
     11816      3939  TIP3      H1             16.5817794676      -32.3036048050       14.2512200322  W2        4187            0.0000000000
     11817      3939  TIP3      H2             15.4137294676      -32.4143848050       15.2079200322  W2        4187            0.0000000000
     11818      3940  TIP3      OH2            15.6506294676      -35.8344048050        8.8979300322  W2        4191            0.0000000000
     11819      3940  TIP3      H1             15.8331294676      -36.2832548050        9.7234300322  W2        4191            0.0000000000
     11820      3940  TIP3      H2             15.0509194676      -36.4189648050        8.4343900322  W2        4191            0.0000000000
     11821      3941  TIP3      OH2             1.1806394676      -35.0190348050       13.4297700322  W2        4192            0.0000000000
     11822      3941  TIP3      H1              1.6257994676      -35.8107848050       13.7317400322  W2        4192            0.0000000000
     11823      3941  TIP3      H2              1.6469394676      -34.3025148050       13.8603300322  W2        4192            0.0000000000
     11824      3942  TIP3      OH2            -0.5153305324      -32.0197348050       14.4987900322  W2        4193            0.0000000000
     11825      3942  TIP3      H1             -0.0233505324      -32.2406848050       13.7079900322  W2        4193            0.0000000000
     11826      3942  TIP3      H2             -0.1532405324      -31.1793948050       14.7797400322  W2        4193            0.0000000000
     11827      3943  TIP3      OH2            17.5172494676      -35.7665948050        5.4259600322  W2        4195            0.0000000000
     11828      3943  TIP3      H1             17.9295094676      -36.4880248050        4.9507600322  W2        4195            0.0000000000
     11829      3943  TIP3      H2             18.1988994676      -35.0971348050        5.4843900322  W2        4195            0.0000000000
     11830      3944  TIP3      OH2            -0.2016805324      -35.7618248050        8.5530300322  W2        4196            0.0000000000
     11831      3944  TIP3      H1             -1.1268405324      -35.5531648050        8.4235800322  W2        4196            0.0000000000
     11832      3944  TIP3      H2              0.2523094676      -35.2777448050        7.8632600322  W2        4196            0.0000000000
     11833      3945  TIP3      OH2            14.5690394676      -20.7776548050       10.4987700322  W2        4197            0.0000000000
     11834      3945  TIP3      H1             15.2213294676      -21.1254448050        9.8906800322  W2        4197            0.0000000000
     11835      3945  TIP3      H2             15.0794194676      -20.2893348050       11.1447400322  W2        4197            0.0000000000
     11836      3946  TIP3      OH2             1.7245594676      -20.9947548050       14.2579700322  W2        4209            0.0000000000
     11837      3946  TIP3      H1              1.7061594676      -21.4202448050       15.1152000322  W2        4209            0.0000000000
     11838      3946  TIP3      H2              2.5293494676      -21.3132548050       13.8491900322  W2        4209            0.0000000000
     11839      3947  TIP3      OH2             3.8658694676      -22.2848848050       12.9129600322  W2        4210            0.0000000000
     11840      3947  TIP3      H1              3.6469394676      -23.2011448050       13.0825600322  W2        4210            0.0000000000
     11841      3947  TIP3      H2              4.6900894676      -22.1448448050       13.3791000322  W2        4210            0.0000000000
     11842      3948  TIP3      OH2             6.4031194676      -21.8149548050       13.7617600322  W2        4211            0.0000000000
     11843      3948  TIP3      H1              6.6156894676      -22.7030548050       13.4748500322  W2        4211            0.0000000000
     11844      3948  TIP3      H2              6.4676294676      -21.8491848050       14.7161600322  W2        4211            0.0000000000
     11845      3949  TIP3      OH2             9.9114894676      -36.1508948050       12.9060900322  W2        4212            0.0000000000
     11846      3949  TIP3      H1              9.2371694676      -36.7803348050       13.1616700322  W2        4212            0.0000000000
     11847      3949  TIP3      H2             10.4754094676      -36.6350048050       12.3028800322  W2        4212            0.0000000000
     11848      3950  TIP3      OH2            15.0542094676      -38.0434948050       13.0188000322  W2        4213            0.0000000000
     11849      3950  TIP3      H1             15.6579694676      -37.4959548050       12.5169000322  W2        4213            0.0000000000
     11850      3950  TIP3      H2             14.1844094676      -37.7244548050       12.7782100322  W2        4213            0.0000000000
     11851      3951  TIP3      OH2            16.7812494676      -36.9046248050       11.3518900322  W2        4214            0.0000000000
     11852      3951  TIP3      H1             17.3929994676      -37.4190548050       10.8252500322  W2        4214            0.0000000000
     11853      3951  TIP3      H2             17.1635894676      -36.0274148050       11.3753300322  W2        4214            0.0000000000
     11854      3952  TIP3      OH2             2.2382394676      -37.5168648050       10.7280800322  W2        4215            0.0000000000
     11855      3952  TIP3      H1              1.4612194676      -37.7513748050       10.2206700322  W2        4215            0.0000000000
     11856      3952  TIP3      H2              2.7685994676      -38.3136548050       10.7368800322  W2        4215            0.0000000000
     11857      3953  TIP3      OH2             1.0745794676      -37.7190548050        6.5316900322  W2        4216            0.0000000000
     11858      3953  TIP3      H1              1.5136494676      -37.1080048050        5.9400400322  W2        4216            0.0000000000
     11859      3953  TIP3      H2              0.4408194676      -37.1806448050        7.0056900322  W2        4216            0.0000000000
     11860      3954  TIP3      OH2             6.8174994676      -37.5901548050       10.5413900322  W2        4217            0.0000000000
     11861      3954  TIP3      H1              7.6918394676      -37.2017248050       10.5118200322  W2        4217            0.0000000000
     11862      3954  TIP3      H2              6.6815794676      -37.8053748050       11.4641100322  W2        4217            0.0000000000
     11863      3955  TIP3      OH2            12.3743394676      -37.5601748050       12.1905600322  W2        4218            0.0000000000
     11864      3955  TIP3      H1             12.4504994676      -37.4650148050       11.2411600322  W2        4218            0.0000000000
     11865      3955  TIP3      H2             12.0992594676      -38.4678848050       12.3194700322  W2        4218            0.0000000000
     11866      3956  TIP3      OH2            13.7275994676      -37.5343948050        7.8830600322  W2        4219            0.0000000000
     11867      3956  TIP3      H1             13.0247094676      -36.9194748050        7.6732000322  W2        4219            0.0000000000
     11868      3956  TIP3      H2             13.2827394676      -38.3717248050        8.0141500322  W2        4219            0.0000000000
     11869      3957  TIP3      OH2             0.9755294676      -21.7708348050        7.4292000322  W2        4220            0.0000000000
     11870      3957  TIP3      H1              0.2905194676      -21.8089448050        6.7617100322  W2        4220            0.0000000000
     11871      3957  TIP3      H2              0.9792494676      -20.8580748050        7.7174100322  W2        4220            0.0000000000
     11872      3958  TIP3      OH2             2.9354894676      -35.8029048050        4.9741000322  W2        4221            0.0000000000
     11873      3958  TIP3      H1              3.4268294676      -36.4326648050        4.4466500322  W2        4221            0.0000000000
     11874      3958  TIP3      H2              3.5591194676      -35.5069648050        5.6372200322  W2        4221            0.0000000000
     11875      3959  TIP3      OH2             7.9614994676      -35.5097548050        7.4311500322  W2        4222            0.0000000000
     11876      3959  TIP3      H1              8.1396294676      -36.1564348050        8.1140100322  W2        4222            0.0000000000
     11877      3959  TIP3      H2              7.9081194676      -34.6759848050        7.8982600322  W2        4222            0.0000000000
     11878      3960  TIP3      OH2             9.8398794676      -20.5613448050        5.8268200322  W2        4223            0.0000000000
     11879      3960  TIP3      H1             10.7058994676      -20.1946048050        5.6486400322  W2        4223            0.0000000000
     11880      3960  TIP3      H2              9.5931594676      -21.0005448050        5.0129000322  W2        4223            0.0000000000
     11881      3961  TIP3      OH2            16.5488394676      -20.9983148050        8.5059300322  W2        4224            0.0000000000
     11882      3961  TIP3      H1             16.3545494676      -21.7461048050        7.9408900322  W2        4224            0.0000000000
     11883      3961  TIP3      H2             16.5098494676      -20.2403048050        7.9227200322  W2        4224            0.0000000000
     11884      3962  TIP3      OH2             2.7936494676      -20.8507548050        4.4544100322  W2        4227            0.0000000000
     11885      3962  TIP3      H1              2.5261094676      -20.5644648050        5.3277200322  W2        4227            0.0000000000
     11886      3962  TIP3      H2              3.5649094676      -21.3968348050        4.6066600322  W2        4227            0.0000000000
     11887      3963  TIP3      OH2            30.1724994676      -28.3606348050       10.6868300322  W2        4230            0.0000000000
     11888      3963  TIP3      H1             30.2616094676      -27.4168148050       10.5545400322  W2        4230            0.0000000000
     11889      3963  TIP3      H2             29.5342594676      -28.6359948050       10.0287700322  W2        4230            0.0000000000
     11890      3964  TIP3      OH2            29.1056294676      -29.1055648050       14.1056500322  W2        4231            0.0000000000
     11891      3964  TIP3      H1             29.0673794676      -29.7519348050       14.8106100322  W2        4231            0.0000000000
     11892      3964  TIP3      H2             28.7832794676      -29.5721248050       13.3345200322  W2        4231            0.0000000000
     11893      3965  TIP3      OH2            32.8116494676      -26.1665248050       12.4071600322  W2        4233            0.0000000000
     11894      3965  TIP3      H1             32.3709194676      -26.8869248050       12.8577200322  W2        4233            0.0000000000
     11895      3965  TIP3      H2             32.7986194676      -25.4458048050       13.0369300322  W2        4233            0.0000000000
     11896      3966  TIP3      OH2            22.3974394676      -25.0414648050       14.2335500322  W2        4234            0.0000000000
     11897      3966  TIP3      H1             22.0279594676      -25.8434148050       13.8639800322  W2        4234            0.0000000000
     11898      3966  TIP3      H2             23.3385494676      -25.2099748050       14.2798900322  W2        4234            0.0000000000
     11899      3967  TIP3      OH2            19.0074894676      -31.3812048050        9.6264300322  W2        4235            0.0000000000
     11900      3967  TIP3      H1             18.5598294676      -30.5353348050        9.6080800322  W2        4235            0.0000000000
     11901      3967  TIP3      H2             18.4466094676      -31.9607848050        9.1109400322  W2        4235            0.0000000000
     11902      3968  TIP3      OH2            19.7180994676      -29.2192448050       11.7522300322  W2        4236            0.0000000000
     11903      3968  TIP3      H1             19.9314494676      -29.9890848050       12.2795300322  W2        4236            0.0000000000
     11904      3968  TIP3      H2             20.4558594676      -29.1295748050       11.1489900322  W2        4236            0.0000000000
     11905      3969  TIP3      OH2            29.9231994676      -21.0623548050       12.6192000322  W2        4237            0.0000000000
     11906      3969  TIP3      H1             30.5428394676      -21.7388848050       12.3461200322  W2        4237            0.0000000000
     11907      3969  TIP3      H2             29.7149394676      -21.2802748050       13.5276900322  W2        4237            0.0000000000
     11908      3970  TIP3      OH2            27.4950694676      -26.6734248050       14.5117500322  W2        4238            0.0000000000
     11909      3970  TIP3      H1             27.7988594676      -27.3592848050       13.9171600322  W2        4238            0.0000000000
     11910      3970  TIP3      H2             28.2164694676      -26.5545548050       15.1295500322  W2        4238            0.0000000000
     11911      3971  TIP3      OH2            30.6357694676      -32.2791848050       14.8392300322  W2        4240            0.0000000000
     11912      3971  TIP3      H1             30.7783594676      -33.2254848050       14.8593900322  W2        4240            0.0000000000
     11913      3971  TIP3      H2             30.5296694676      -32.0722048050       13.9107200322  W2        4240            0.0000000000
     11914      3972  TIP3      OH2            23.7905994676      -34.1775448050       12.1117100322  W2        4241            0.0000000000
     11915      3972  TIP3      H1             23.8337094676      -33.3176948050       11.6933400322  W2        4241            0.0000000000
     11916      3972  TIP3      H2             23.3330094676      -34.7300748050       11.4780300322  W2        4241            0.0000000000
     11917      3973  TIP3      OH2            31.5128694676      -34.0469848050       10.5125400322  W2        4242            0.0000000000
     11918      3973  TIP3      H1             32.1592994676      -34.3756648050       11.1373000322  W2        4242            0.0000000000
     11919      3973  TIP3      H2             32.0228094676      -33.5290848050        9.8896800322  W2        4242            0.0000000000
     11920      3974  TIP3      OH2            20.4107494676      -31.7809648050       12.8738500322  W2        4243            0.0000000000
     11921      3974  TIP3      H1             21.0644094676      -32.3307948050       13.3058600322  W2        4243            0.0000000000
     11922      3974  TIP3      H2             20.4346794676      -32.0550648050       11.9570500322  W2        4243            0.0000000000
     11923      3975  TIP3      OH2            25.5671994676      -30.2308348050       12.0890000322  W2        4244            0.0000000000
     11924      3975  TIP3      H1             26.1832994676      -30.7572948050       12.5984000322  W2        4244            0.0000000000
     11925      3975  TIP3      H2             24.9810794676      -30.8709648050       11.6853600322  W2        4244            0.0000000000
     11926      3976  TIP3      OH2            29.9697694676      -25.7595948050        9.7297000322  W2        4247            0.0000000000
     11927      3976  TIP3      H1             29.6742794676      -26.0823648050        8.8783900322  W2        4247            0.0000000000
     11928      3976  TIP3      H2             29.6455494676      -24.8599248050        9.7709600322  W2        4247            0.0000000000
     11929      3977  TIP3      OH2            33.2767094676      -34.7560548050       12.4931300322  W2        4249            0.0000000000
     11930      3977  TIP3      H1             33.0615094676      -35.5217148050       13.0257300322  W2        4249            0.0000000000
     11931      3977  TIP3      H2             33.9324494676      -34.2835948050       13.0059800322  W2        4249            0.0000000000
     11932      3978  TIP3      OH2            22.1945194676      -33.3675248050       14.1380100322  W2        4250            0.0000000000
     11933      3978  TIP3      H1             22.8081494676      -32.7347648050       14.5112500322  W2        4250            0.0000000000
     11934      3978  TIP3      H2             22.7065894676      -33.8400248050       13.4817000322  W2        4250            0.0000000000
     11935      3979  TIP3      OH2            19.6984494676      -25.9490448050        8.0422400322  W2        4252            0.0000000000
     11936      3979  TIP3      H1             19.4265394676      -25.7199448050        7.1535300322  W2        4252            0.0000000000
     11937      3979  TIP3      H2             19.7440194676      -25.1111648050        8.5027700322  W2        4252            0.0000000000
     11938      3980  TIP3      OH2            33.3234194676      -24.3274548050       14.7550900322  W2        4253            0.0000000000
     11939      3980  TIP3      H1             32.3817894676      -24.2690648050       14.9167800322  W2        4253            0.0000000000
     11940      3980  TIP3      H2             33.6000294676      -23.4214048050       14.6180600322  W2        4253            0.0000000000
     11941      3981  TIP3      OH2            26.6272594676      -37.9541948050       13.6382800322  W2        4255            0.0000000000
     11942      3981  TIP3      H1             26.5096794676      -38.9025948050       13.5841100322  W2        4255            0.0000000000
     11943      3981  TIP3      H2             25.7722694676      -37.6215848050       13.9113900322  W2        4255            0.0000000000
     11944      3982  TIP3      OH2            31.5755394676      -22.5461048050       11.3802500322  W2        4256            0.0000000000
     11945      3982  TIP3      H1             32.0007694676      -23.2533148050       10.8952100322  W2        4256            0.0000000000
     11946      3982  TIP3      H2             31.8925394676      -21.7448348050       10.9634700322  W2        4256            0.0000000000
     11947      3983  TIP3      OH2            32.7351894676      -24.6452548050        9.8889100322  W2        4257            0.0000000000
     11948      3983  TIP3      H1             32.4776694676      -25.3352448050        9.2775000322  W2        4257            0.0000000000
     11949      3983  TIP3      H2             32.8062694676      -25.0881348050       10.7345000322  W2        4257            0.0000000000
     11950      3984  TIP3      OH2            28.8937494676      -29.1166348050        8.1388600322  W2        4259            0.0000000000
     11951      3984  TIP3      H1             28.1822994676      -28.5816648050        7.7869100322  W2        4259            0.0000000000
     11952      3984  TIP3      H2             29.5847094676      -29.0614248050        7.4787500322  W2        4259            0.0000000000
     11953      3985  TIP3      OH2            28.9476694676      -30.6592048050        5.1773600322  W2        4260            0.0000000000
     11954      3985  TIP3      H1             29.6486594676      -30.6365148050        5.8287600322  W2        4260            0.0000000000
     11955      3985  TIP3      H2             29.2499594676      -31.2872348050        4.5212900322  W2        4260            0.0000000000
     11956      3986  TIP3      OH2            32.2995194676      -28.9073048050        9.0904500322  W2        4262            0.0000000000
     11957      3986  TIP3      H1             31.5676194676      -28.6789348050        9.6635100322  W2        4262            0.0000000000
     11958      3986  TIP3      H2             32.7467394676      -29.6210348050        9.5452000322  W2        4262            0.0000000000
     11959      3987  TIP3      OH2            23.9448894676      -28.2766848050       10.9729500322  W2        4264            0.0000000000
     11960      3987  TIP3      H1             23.6144094676      -28.6473448050       10.1546500322  W2        4264            0.0000000000
     11961      3987  TIP3      H2             24.5332994676      -28.9472848050       11.3197800322  W2        4264            0.0000000000
     11962      3988  TIP3      OH2            25.3116394676      -24.8486248050       13.6541700322  W2        4265            0.0000000000
     11963      3988  TIP3      H1             25.2167694676      -25.4273148050       12.8976300322  W2        4265            0.0000000000
     11964      3988  TIP3      H2             26.0409994676      -25.2200548050       14.1504500322  W2        4265            0.0000000000
     11965      3989  TIP3      OH2            24.3114394676      -29.5081248050       14.6064500322  W2        4266            0.0000000000
     11966      3989  TIP3      H1             24.8766894676      -29.3867048050       13.8435700322  W2        4266            0.0000000000
     11967      3989  TIP3      H2             24.6303294676      -28.8706248050       15.2453000322  W2        4266            0.0000000000
     11968      3990  TIP3      OH2            31.1704694676      -29.7450148050        6.7755700322  W2        4269            0.0000000000
     11969      3990  TIP3      H1             31.7500194676      -29.5949848050        7.5224600322  W2        4269            0.0000000000
     11970      3990  TIP3      H2             31.5844694676      -29.2742748050        6.0522100322  W2        4269            0.0000000000
     11971      3991  TIP3      OH2            28.8969594676      -23.0081648050       10.2108800322  W2        4271            0.0000000000
     11972      3991  TIP3      H1             29.3707194676      -22.7125348050       10.9883000322  W2        4271            0.0000000000
     11973      3991  TIP3      H2             28.3338894676      -22.2700048050        9.9778400322  W2        4271            0.0000000000
     11974      3992  TIP3      OH2            34.8693094676      -37.9949748050        6.5885400322  W2        4273            0.0000000000
     11975      3992  TIP3      H1             33.9693794676      -37.8560748050        6.8836000322  W2        4273            0.0000000000
     11976      3992  TIP3      H2             35.1211494676      -37.1635148050        6.1867100322  W2        4273            0.0000000000
     11977      3993  TIP3      OH2            22.9351594676      -29.2072548050        8.5622300322  W2        4274            0.0000000000
     11978      3993  TIP3      H1             22.6432894676      -28.4390848050        8.0713600322  W2        4274            0.0000000000
     11979      3993  TIP3      H2             22.2606794676      -29.8666348050        8.3993700322  W2        4274            0.0000000000
     11980      3994  TIP3      OH2            36.0584494676      -23.6287348050        4.9649300322  W2        4275            0.0000000000
     11981      3994  TIP3      H1             36.1317994676      -22.6897148050        5.1354600322  W2        4275            0.0000000000
     11982      3994  TIP3      H2             36.9639594676      -23.9338748050        4.9086600322  W2        4275            0.0000000000
     11983      3995  TIP3      OH2            18.7784394676      -24.0639548050       14.2612300322  W2        4277            0.0000000000
     11984      3995  TIP3      H1             19.7244994676      -24.2082548050       14.2421800322  W2        4277            0.0000000000
     11985      3995  TIP3      H2             18.6660694676      -23.2796748050       14.7983500322  W2        4277            0.0000000000
     11986      3996  TIP3      OH2            28.3692694676      -20.0516948050        8.6258000322  W2        4280            0.0000000000
     11987      3996  TIP3      H1             28.2938694676      -20.1729748050        7.6793200322  W2        4280            0.0000000000
     11988      3996  TIP3      H2             28.4021394676      -19.1024248050        8.7442600322  W2        4280            0.0000000000
     11989      3997  TIP3      OH2            22.0226494676      -21.2629948050       10.4067000322  W2        4281            0.0000000000
     11990      3997  TIP3      H1             22.1746894676      -21.6109548050       11.2853500322  W2        4281            0.0000000000
     11991      3997  TIP3      H2             21.1716894676      -21.6192648050       10.1514200322  W2        4281            0.0000000000
     11992      3998  TIP3      OH2            31.4708694676      -20.8976748050        5.6280400322  W2        4282            0.0000000000
     11993      3998  TIP3      H1             31.8457094676      -21.6420648050        5.1573000322  W2        4282            0.0000000000
     11994      3998  TIP3      H2             31.4752394676      -21.1676148050        6.5463700322  W2        4282            0.0000000000
     11995      3999  TIP3      OH2            31.1396794676      -20.9719648050        8.3772600322  W2        4283            0.0000000000
     11996      3999  TIP3      H1             30.2046594676      -20.8717748050        8.5559600322  W2        4283            0.0000000000
     11997      3999  TIP3      H2             31.4198694676      -21.6813648050        8.9555800322  W2        4283            0.0000000000
     11998      4000  TIP3      OH2            23.8960194676      -37.0507448050       14.4159100322  W2        4286            0.0000000000
     11999      4000  TIP3      H1             23.0343894676      -37.1379248050       14.0082000322  W2        4286            0.0000000000
     12000      4000  TIP3      H2             23.8735894676      -36.1947348050       14.8436700322  W2        4286            0.0000000000
     12001      4001  TIP3      OH2            32.6477794676      -28.7121848050        4.4053600322  W2        4289            0.0000000000
     12002      4001  TIP3      H1             32.6898594676      -28.9347948050        3.4753600322  W2        4289            0.0000000000
     12003      4001  TIP3      H2             33.4969894676      -28.3134748050        4.5953500322  W2        4289            0.0000000000
     12004      4002  TIP3      OH2            28.2205294676      -34.8363648050        5.0756900322  W2        4290            0.0000000000
     12005      4002  TIP3      H1             27.9670094676      -34.8172048050        5.9985000322  W2        4290            0.0000000000
     12006      4002  TIP3      H2             27.9637394676      -35.7078248050        4.7743100322  W2        4290            0.0000000000
     12007      4003  TIP3      OH2            23.9839394676      -31.8642848050       10.4229300322  W2        4292            0.0000000000
     12008      4003  TIP3      H1             23.0912294676      -32.2046748050       10.3643100322  W2        4292            0.0000000000
     12009      4003  TIP3      H2             24.4345994676      -32.2411948050        9.6672500322  W2        4292            0.0000000000
     12010      4004  TIP3      OH2            29.5194894676      -31.4482548050        9.2400100322  W2        4293            0.0000000000
     12011      4004  TIP3      H1             29.1105194676      -30.6333948050        8.9484900322  W2        4293            0.0000000000
     12012      4004  TIP3      H2             30.2401094676      -31.5882448050        8.6257200322  W2        4293            0.0000000000
     12013      4005  TIP3      OH2            30.5242594676      -32.0022148050       12.0539800322  W2        4295            0.0000000000
     12014      4005  TIP3      H1             30.3287094676      -31.3965348050       11.3390400322  W2        4295            0.0000000000
     12015      4005  TIP3      H2             30.7055194676      -32.8356948050       11.6196100322  W2        4295            0.0000000000
     12016      4006  TIP3      OH2            25.1028194676      -34.3907148050        4.1767300322  W2        4297            0.0000000000
     12017      4006  TIP3      H1             24.6718894676      -34.8357048050        4.9064700322  W2        4297            0.0000000000
     12018      4006  TIP3      H2             24.3846894676      -34.0190848050        3.6644800322  W2        4297            0.0000000000
     12019      4007  TIP3      OH2            18.3451594676      -34.6487648050       11.2286000322  W2        4298            0.0000000000
     12020      4007  TIP3      H1             18.9759294676      -34.6775548050       11.9479900322  W2        4298            0.0000000000
     12021      4007  TIP3      H2             18.7945894676      -35.0738948050       10.4981900322  W2        4298            0.0000000000
     12022      4008  TIP3      OH2            19.6193694676      -33.9025648050        6.6526400322  W2        4299            0.0000000000
     12023      4008  TIP3      H1             20.0935394676      -33.3115748050        6.0677300322  W2        4299            0.0000000000
     12024      4008  TIP3      H2             18.9020094676      -33.3722748050        6.9996500322  W2        4299            0.0000000000
     12025      4009  TIP3      OH2            26.5654694676      -34.4365348050       11.5093400322  W2        4301            0.0000000000
     12026      4009  TIP3      H1             25.6545794676      -34.3798548050       11.7979400322  W2        4301            0.0000000000
     12027      4009  TIP3      H2             27.0707594676      -34.4969848050       12.3200600322  W2        4301            0.0000000000
     12028      4010  TIP3      OH2            21.3938094676      -32.8079048050       10.3361000322  W2        4302            0.0000000000
     12029      4010  TIP3      H1             20.5046094676      -32.7083548050        9.9960600322  W2        4302            0.0000000000
     12030      4010  TIP3      H2             21.6902994676      -33.6496048050        9.9898900322  W2        4302            0.0000000000
     12031      4011  TIP3      OH2            25.0469894676      -32.8076448050        7.9925600322  W2        4303            0.0000000000
     12032      4011  TIP3      H1             25.9785394676      -32.6786448050        8.1708700322  W2        4303            0.0000000000
     12033      4011  TIP3      H2             24.8320194676      -32.1382148050        7.3430300322  W2        4303            0.0000000000
     12034      4012  TIP3      OH2            30.9706594676      -35.2019048050       14.7735200322  W2        4304            0.0000000000
     12035      4012  TIP3      H1             30.2938194676      -35.0705948050       15.4374900322  W2        4304            0.0000000000
     12036      4012  TIP3      H2             30.4851494676      -35.3569548050       13.9632900322  W2        4304            0.0000000000
     12037      4013  TIP3      OH2            23.7210094676      -31.6134248050        5.5591700322  W2        4305            0.0000000000
     12038      4013  TIP3      H1             23.1785194676      -31.9930448050        4.8679300322  W2        4305            0.0000000000
     12039      4013  TIP3      H2             24.5544994676      -31.4189548050        5.1305800322  W2        4305            0.0000000000
     12040      4014  TIP3      OH2            27.8854394676      -31.6492348050       13.3963000322  W2        4308            0.0000000000
     12041      4014  TIP3      H1             28.4497794676      -32.1955748050       12.8492600322  W2        4308            0.0000000000
     12042      4014  TIP3      H2             27.7377794676      -32.1710448050       14.1850600322  W2        4308            0.0000000000
     12043      4015  TIP3      OH2            22.8874094676      -35.5126248050        9.8147800322  W2        4309            0.0000000000
     12044      4015  TIP3      H1             22.5703594676      -36.4150948050        9.7793200322  W2        4309            0.0000000000
     12045      4015  TIP3      H2             23.6688194676      -35.5108848050        9.2619400322  W2        4309            0.0000000000
     12046      4016  TIP3      OH2            27.0562894676      -27.0478548050        7.4949800322  W2        4311            0.0000000000
     12047      4016  TIP3      H1             26.3113894676      -27.5553248050        7.1727700322  W2        4311            0.0000000000
     12048      4016  TIP3      H2             26.9220094676      -26.9990548050        8.4414600322  W2        4311            0.0000000000
     12049      4017  TIP3      OH2            30.9539694676      -34.2338648050        5.6942400322  W2        4313            0.0000000000
     12050      4017  TIP3      H1             30.0153894676      -34.1223048050        5.5431200322  W2        4313            0.0000000000
     12051      4017  TIP3      H2             31.2511794676      -33.3771748050        6.0008100322  W2        4313            0.0000000000
     12052      4018  TIP3      OH2            31.6723194676      -32.3665948050        7.3549800322  W2        4315            0.0000000000
     12053      4018  TIP3      H1             32.5642194676      -32.5040948050        7.6741000322  W2        4315            0.0000000000
     12054      4018  TIP3      H2             31.7286794676      -31.5759848050        6.8183300322  W2        4315            0.0000000000
     12055      4019  TIP3      OH2            22.1811194676      -27.7528548050       13.2647700322  W2        4316            0.0000000000
     12056      4019  TIP3      H1             22.9258394676      -27.7552848050       12.6634200322  W2        4316            0.0000000000
     12057      4019  TIP3      H2             22.2587794676      -28.5764748050       13.7462800322  W2        4316            0.0000000000
     12058      4020  TIP3      OH2            29.1816994676      -25.5894248050        6.5204400322  W2        4317            0.0000000000
     12059      4020  TIP3      H1             28.8865394676      -24.7626348050        6.9019200322  W2        4317            0.0000000000
     12060      4020  TIP3      H2             28.4786994676      -26.2087348050        6.7165800322  W2        4317            0.0000000000
     12061      4021  TIP3      OH2            36.5571894676      -32.1571848050        7.0496500322  W2        4321            0.0000000000
     12062      4021  TIP3      H1             36.0028194676      -32.5533848050        6.3774000322  W2        4321            0.0000000000
     12063      4021  TIP3      H2             36.6575494676      -31.2466648050        6.7719800322  W2        4321            0.0000000000
     12064      4022  TIP3      OH2            34.8523594676      -23.3711448050        7.5148600322  W2        4323            0.0000000000
     12065      4022  TIP3      H1             34.4794694676      -24.1967648050        7.8239200322  W2        4323            0.0000000000
     12066      4022  TIP3      H2             35.1297094676      -23.5542048050        6.6172000322  W2        4323            0.0000000000
     12067      4023  TIP3      OH2            32.0127494676      -28.5631948050       14.5360500322  W2        4324            0.0000000000
     12068      4023  TIP3      H1             31.0844394676      -28.7950048050       14.5089800322  W2        4324            0.0000000000
     12069      4023  TIP3      H2             32.4638594676      -29.3402148050       14.2059300322  W2        4324            0.0000000000
     12070      4024  TIP3      OH2            24.5560594676      -24.2350348050       10.6689200322  W2        4325            0.0000000000
     12071      4024  TIP3      H1             25.0832794676      -23.4615948050       10.4688000322  W2        4325            0.0000000000
     12072      4024  TIP3      H2             23.6759094676      -24.0101148050       10.3673200322  W2        4325            0.0000000000
     12073      4025  TIP3      OH2            20.3108294676      -29.3726248050        5.2561600322  W2        4326            0.0000000000
     12074      4025  TIP3      H1             20.9268194676      -28.7459048050        5.6356400322  W2        4326            0.0000000000
     12075      4025  TIP3      H2             19.4490894676      -29.0566448050        5.5278100322  W2        4326            0.0000000000
     12076      4026  TIP3      OH2            25.9832894676      -26.5720448050       10.2453500322  W2        4327            0.0000000000
     12077      4026  TIP3      H1             25.7422894676      -25.6466048050       10.2868800322  W2        4327            0.0000000000
     12078      4026  TIP3      H2             25.2426494676      -27.0309148050       10.6417400322  W2        4327            0.0000000000
     12079      4027  TIP3      OH2            24.6663694676      -21.5502848050        9.7905700322  W2        4329            0.0000000000
     12080      4027  TIP3      H1             23.7164194676      -21.4445448050        9.8419000322  W2        4329            0.0000000000
     12081      4027  TIP3      H2             25.0181794676      -20.7295448050       10.1353200322  W2        4329            0.0000000000
     12082      4028  TIP3      OH2            32.2449194676      -25.3945648050        5.3349200322  W2        4331            0.0000000000
     12083      4028  TIP3      H1             32.5982294676      -25.7745848050        6.1392700322  W2        4331            0.0000000000
     12084      4028  TIP3      H2             31.2962694676      -25.4880848050        5.4218500322  W2        4331            0.0000000000
     12085      4029  TIP3      OH2            36.7483594676      -20.9153148050        5.5359400322  W2        4333            0.0000000000
     12086      4029  TIP3      H1             37.4921494676      -20.3292648050        5.3961000322  W2        4333            0.0000000000
     12087      4029  TIP3      H2             36.0541694676      -20.3467348050        5.8691800322  W2        4333            0.0000000000
     12088      4030  TIP3      OH2            33.1108494676      -26.7223648050        7.5617100322  W2        4335            0.0000000000
     12089      4030  TIP3      H1             32.8336094676      -27.4504348050        8.1178200322  W2        4335            0.0000000000
     12090      4030  TIP3      H2             34.0381494676      -26.6031648050        7.7669700322  W2        4335            0.0000000000
     12091      4031  TIP3      OH2            26.3356994676      -24.2829548050        3.7819200322  W2        4337            0.0000000000
     12092      4031  TIP3      H1             26.5746794676      -25.0311448050        3.2348100322  W2        4337            0.0000000000
     12093      4031  TIP3      H2             26.0668294676      -24.6707848050        4.6147000322  W2        4337            0.0000000000
     12094      4032  TIP3      OH2            25.2727594676      -24.7125748050        6.2381800322  W2        4338            0.0000000000
     12095      4032  TIP3      H1             25.4195594676      -25.2325948050        7.0282700322  W2        4338            0.0000000000
     12096      4032  TIP3      H2             25.2699294676      -23.8058148050        6.5447700322  W2        4338            0.0000000000
     12097      4033  TIP3      OH2            21.7258694676      -27.4602448050        6.7487200322  W2        4339            0.0000000000
     12098      4033  TIP3      H1             21.0397994676      -27.1079948050        7.3156900322  W2        4339            0.0000000000
     12099      4033  TIP3      H2             22.2486594676      -26.6972848050        6.5021500322  W2        4339            0.0000000000
     12100      4034  TIP3      OH2            30.3418694676      -35.1456948050        8.1248500322  W2        4341            0.0000000000
     12101      4034  TIP3      H1             30.5616994676      -34.6741548050        7.3213900322  W2        4341            0.0000000000
     12102      4034  TIP3      H2             30.9002694676      -34.7514348050        8.7949100322  W2        4341            0.0000000000
     12103      4035  TIP3      OH2            28.0104794676      -23.0152148050        6.9876000322  W2        4342            0.0000000000
     12104      4035  TIP3      H1             27.1940894676      -22.5182448050        7.0400300322  W2        4342            0.0000000000
     12105      4035  TIP3      H2             28.5401094676      -22.5398648050        6.3474800322  W2        4342            0.0000000000
     12106      4036  TIP3      OH2            27.5418594676      -33.4178148050        8.9596900322  W2        4343            0.0000000000
     12107      4036  TIP3      H1             28.3541194676      -32.9134948050        9.0058600322  W2        4343            0.0000000000
     12108      4036  TIP3      H2             27.2971594676      -33.5628448050        9.8736500322  W2        4343            0.0000000000
     12109      4037  TIP3      OH2            28.4255294676      -36.3365148050        9.8978000322  W2        4345            0.0000000000
     12110      4037  TIP3      H1             28.0788794676      -35.7194548050       10.5422300322  W2        4345            0.0000000000
     12111      4037  TIP3      H2             29.0842194676      -35.8359448050        9.4163500322  W2        4345            0.0000000000
     12112      4038  TIP3      OH2            25.3487894676      -21.9714948050        6.9692900322  W2        4346            0.0000000000
     12113      4038  TIP3      H1             25.5096594676      -21.1717448050        6.4685500322  W2        4346            0.0000000000
     12114      4038  TIP3      H2             25.1515694676      -21.6648948050        7.8543500322  W2        4346            0.0000000000
     12115      4039  TIP3      OH2            24.0832294676      -35.2735748050        6.5850500322  W2        4347            0.0000000000
     12116      4039  TIP3      H1             23.9997094676      -34.3852648050        6.9316900322  W2        4347            0.0000000000
     12117      4039  TIP3      H2             24.9732594676      -35.5389048050        6.8167300322  W2        4347            0.0000000000
     12118      4040  TIP3      OH2            32.8841794676      -30.7744148050       13.0750500322  W2        4349            0.0000000000
     12119      4040  TIP3      H1             32.0866194676      -31.1893948050       12.7465500322  W2        4349            0.0000000000
     12120      4040  TIP3      H2             33.3292894676      -31.4650448050       13.5661000322  W2        4349            0.0000000000
     12121      4041  TIP3      OH2            22.3417594676      -24.8463548050        5.6455000322  W2        4350            0.0000000000
     12122      4041  TIP3      H1             22.9339094676      -24.1468748050        5.9217400322  W2        4350            0.0000000000
     12123      4041  TIP3      H2             22.8010594676      -25.2794048050        4.9259600322  W2        4350            0.0000000000
     12124      4042  TIP3      OH2            20.6576794676      -32.1820548050        4.7614400322  W2        4351            0.0000000000
     12125      4042  TIP3      H1             20.6129394676      -31.2427448050        4.9401400322  W2        4351            0.0000000000
     12126      4042  TIP3      H2             19.7699994676      -32.4175648050        4.4916500322  W2        4351            0.0000000000
     12127      4043  TIP3      OH2            33.9706394676      -21.5181648050       14.6974000322  W2        4352            0.0000000000
     12128      4043  TIP3      H1             33.8150694676      -20.8397248050       14.0403300322  W2        4352            0.0000000000
     12129      4043  TIP3      H2             34.9032794676      -21.4462348050       14.9004600322  W2        4352            0.0000000000
     12130      4044  TIP3      OH2            21.4658794676      -37.4003948050       13.4345400322  W2        4353            0.0000000000
     12131      4044  TIP3      H1             21.2368594676      -37.3411448050       12.5070400322  W2        4353            0.0000000000
     12132      4044  TIP3      H2             21.0232194676      -38.1918448050       13.7409500322  W2        4353            0.0000000000
     12133      4045  TIP3      OH2            20.3962094676      -23.4596848050        9.5951200322  W2        4354            0.0000000000
     12134      4045  TIP3      H1             19.5640694676      -22.9874148050        9.6222600322  W2        4354            0.0000000000
     12135      4045  TIP3      H2             20.9420394676      -22.9499248050        8.9964300322  W2        4354            0.0000000000
     12136      4046  TIP3      OH2            28.3738794676      -22.4198148050        3.9205200322  W2        4357            0.0000000000
     12137      4046  TIP3      H1             27.7299794676      -23.0509548050        4.2418900322  W2        4357            0.0000000000
     12138      4046  TIP3      H2             29.1357094676      -22.9510148050        3.6888700322  W2        4357            0.0000000000
     12139      4047  TIP3      OH2            32.9781694676      -22.6028248050        4.1543200322  W2        4359            0.0000000000
     12140      4047  TIP3      H1             33.2612094676      -23.3973048050        4.6070100322  W2        4359            0.0000000000
     12141      4047  TIP3      H2             33.7179594676      -22.3697248050        3.5934300322  W2        4359            0.0000000000
     12142      4048  TIP3      OH2            23.9328994676      -26.6933348050        4.0118100322  W2        4361            0.0000000000
     12143      4048  TIP3      H1             23.9973094676      -27.4873748050        4.5424500322  W2        4361            0.0000000000
     12144      4048  TIP3      H2             24.5858194676      -26.8120548050        3.3220100322  W2        4361            0.0000000000
     12145      4049  TIP3      OH2            29.2852394676      -25.6461648050        3.7476100322  W2        4363            0.0000000000
     12146      4049  TIP3      H1             29.0166494676      -25.4659548050        4.6485000322  W2        4363            0.0000000000
     12147      4049  TIP3      H2             29.0787994676      -26.5715448050        3.6161900322  W2        4363            0.0000000000
     12148      4050  TIP3      OH2            25.0822794676      -28.7207148050        6.3176100322  W2        4366            0.0000000000
     12149      4050  TIP3      H1             24.6224794676      -29.2048848050        7.0034600322  W2        4366            0.0000000000
     12150      4050  TIP3      H2             25.3371494676      -29.3891748050        5.6816600322  W2        4366            0.0000000000
     12151      4051  TIP3      OH2            26.1533194676      -30.4775348050        4.5799300322  W2        4368            0.0000000000
     12152      4051  TIP3      H1             25.9728194676      -30.6324148050        3.6527600322  W2        4368            0.0000000000
     12153      4051  TIP3      H2             27.1033694676      -30.3696648050        4.6247200322  W2        4368            0.0000000000
     12154      4052  TIP3      OH2            35.5431494676      -28.1231148050        4.0257400322  W2        4370            0.0000000000
     12155      4052  TIP3      H1             35.2696294676      -28.5475648050        3.2125700322  W2        4370            0.0000000000
     12156      4052  TIP3      H2             35.5825594676      -27.1916648050        3.8087800322  W2        4370            0.0000000000
     12157      4053  TIP3      OH2            26.0504894676      -19.7871648050        5.5812900322  W2        4384            0.0000000000
     12158      4053  TIP3      H1             26.9835594676      -19.6292948050        5.7251300322  W2        4384            0.0000000000
     12159      4053  TIP3      H2             25.7863694676      -19.1118648050        4.9564400322  W2        4384            0.0000000000
     12160      4054  TIP3      OH2            19.6189794676      -25.1507848050        5.0641000322  W2        4385            0.0000000000
     12161      4054  TIP3      H1             20.5328994676      -25.0718948050        5.3374900322  W2        4385            0.0000000000
     12162      4054  TIP3      H2             19.6262894676      -25.8378248050        4.3976600322  W2        4385            0.0000000000
     12163      4055  TIP3      OH2            18.2680394676      -19.7579348050       10.1414900322  W2        4386            0.0000000000
     12164      4055  TIP3      H1             17.6207494676      -20.2197648050        9.6086100322  W2        4386            0.0000000000
     12165      4055  TIP3      H2             18.6224994676      -20.4296048050       10.7241100322  W2        4386            0.0000000000
     12166      4056  TIP3      OH2            19.1379594676      -21.6772348050       11.9461100322  W2        4387            0.0000000000
     12167      4056  TIP3      H1             18.8036394676      -22.5575048050       12.1181300322  W2        4387            0.0000000000
     12168      4056  TIP3      H2             19.3601994676      -21.3317348050       12.8106700322  W2        4387            0.0000000000
     12169      4057  TIP3      OH2            36.0014294676      -27.2543048050        8.0007800322  W2        4391            0.0000000000
     12170      4057  TIP3      H1             36.8515694676      -26.8332148050        8.1279400322  W2        4391            0.0000000000
     12171      4057  TIP3      H2             36.0069394676      -27.9942948050        8.6079200322  W2        4391            0.0000000000
     12172      4058  TIP3      OH2            36.3959894676      -29.2005648050        9.8243500322  W2        4392            0.0000000000
     12173      4058  TIP3      H1             35.6694494676      -29.6803048050       10.2221100322  W2        4392            0.0000000000
     12174      4058  TIP3      H2             36.9773194676      -28.9950948050       10.5565100322  W2        4392            0.0000000000
     12175      4059  TIP3      OH2            36.1551094676      -26.4158148050       14.7721100322  W2        4393            0.0000000000
     12176      4059  TIP3      H1             36.9885294676      -26.7938148050       14.4914700322  W2        4393            0.0000000000
     12177      4059  TIP3      H2             36.2671394676      -25.4726948050       14.6530200322  W2        4393            0.0000000000
     12178      4060  TIP3      OH2            36.6642994676      -29.2997148050        6.2154800322  W2        4395            0.0000000000
     12179      4060  TIP3      H1             36.1424094676      -28.9433048050        5.4965700322  W2        4395            0.0000000000
     12180      4060  TIP3      H2             36.6312194676      -28.6249348050        6.8935700322  W2        4395            0.0000000000
     12181      4061  TIP3      OH2            35.0131994676      -32.0601548050        4.7661900322  W2        4396            0.0000000000
     12182      4061  TIP3      H1             35.1096394676      -31.3934548050        4.0861600322  W2        4396            0.0000000000
     12183      4061  TIP3      H2             34.8731594676      -32.8755248050        4.2847400322  W2        4396            0.0000000000
     12184      4062  TIP3      OH2            34.1826694676      -30.6799148050       10.3872200322  W2        4397            0.0000000000
     12185      4062  TIP3      H1             34.0325494676      -31.6250548050       10.3670000322  W2        4397            0.0000000000
     12186      4062  TIP3      H2             33.8291194676      -30.3987748050       11.2311300322  W2        4397            0.0000000000
     12187      4063  TIP3      OH2            19.2179094676      -28.6016948050       14.3976000322  W2        4398            0.0000000000
     12188      4063  TIP3      H1             19.4021994676      -28.6835248050       13.4618900322  W2        4398            0.0000000000
     12189      4063  TIP3      H2             20.0671994676      -28.7259948050       14.8212400322  W2        4398            0.0000000000
     12190      4064  TIP3      OH2            34.2605794676      -34.6521748050        3.8837400322  W2        4401            0.0000000000
     12191      4064  TIP3      H1             34.8711594676      -35.0234948050        4.5205600322  W2        4401            0.0000000000
     12192      4064  TIP3      H2             33.4237294676      -35.0734848050        4.0797400322  W2        4401            0.0000000000
     12193      4065  TIP3      OH2            33.8931494676      -33.0973348050        8.8497300322  W2        4402            0.0000000000
     12194      4065  TIP3      H1             34.1728594676      -34.0042948050        8.9739000322  W2        4402            0.0000000000
     12195      4065  TIP3      H2             34.6523194676      -32.6631848050        8.4606500322  W2        4402            0.0000000000
     12196      4066  TIP3      OH2            34.5049794676      -32.5155948050       14.2856200322  W2        4403            0.0000000000
     12197      4066  TIP3      H1             35.4377794676      -32.3036048050       14.2512200322  W2        4403            0.0000000000
     12198      4066  TIP3      H2             34.2697294676      -32.4143848050       15.2079200322  W2        4403            0.0000000000
     12199      4067  TIP3      OH2            34.5066294676      -35.8344048050        8.8979300322  W2        4407            0.0000000000
     12200      4067  TIP3      H1             34.6891294676      -36.2832548050        9.7234300322  W2        4407            0.0000000000
     12201      4067  TIP3      H2             33.9069194676      -36.4189648050        8.4343900322  W2        4407            0.0000000000
     12202      4068  TIP3      OH2            20.0366394676      -35.0190348050       13.4297700322  W2        4408            0.0000000000
     12203      4068  TIP3      H1             20.4817994676      -35.8107848050       13.7317400322  W2        4408            0.0000000000
     12204      4068  TIP3      H2             20.5029394676      -34.3025148050       13.8603300322  W2        4408            0.0000000000
     12205      4069  TIP3      OH2            18.3406694676      -32.0197348050       14.4987900322  W2        4409            0.0000000000
     12206      4069  TIP3      H1             18.8326494676      -32.2406848050       13.7079900322  W2        4409            0.0000000000
     12207      4069  TIP3      H2             18.7027594676      -31.1793948050       14.7797400322  W2        4409            0.0000000000
     12208      4070  TIP3      OH2            36.3732494676      -35.7665948050        5.4259600322  W2        4411            0.0000000000
     12209      4070  TIP3      H1             36.7855094676      -36.4880248050        4.9507600322  W2        4411            0.0000000000
     12210      4070  TIP3      H2             37.0548994676      -35.0971348050        5.4843900322  W2        4411            0.0000000000
     12211      4071  TIP3      OH2            18.6543194676      -35.7618248050        8.5530300322  W2        4412            0.0000000000
     12212      4071  TIP3      H1             17.7291594676      -35.5531648050        8.4235800322  W2        4412            0.0000000000
     12213      4071  TIP3      H2             19.1083094676      -35.2777448050        7.8632600322  W2        4412            0.0000000000
     12214      4072  TIP3      OH2            33.4250394676      -20.7776548050       10.4987700322  W2        4413            0.0000000000
     12215      4072  TIP3      H1             34.0773294676      -21.1254448050        9.8906800322  W2        4413            0.0000000000
     12216      4072  TIP3      H2             33.9354194676      -20.2893348050       11.1447400322  W2        4413            0.0000000000
     12217      4073  TIP3      OH2            20.5805594676      -20.9947548050       14.2579700322  W2        4425            0.0000000000
     12218      4073  TIP3      H1             20.5621594676      -21.4202448050       15.1152000322  W2        4425            0.0000000000
     12219      4073  TIP3      H2             21.3853494676      -21.3132548050       13.8491900322  W2        4425            0.0000000000
     12220      4074  TIP3      OH2            22.7218694676      -22.2848848050       12.9129600322  W2        4426            0.0000000000
     12221      4074  TIP3      H1             22.5029394676      -23.2011448050       13.0825600322  W2        4426            0.0000000000
     12222      4074  TIP3      H2             23.5460894676      -22.1448448050       13.3791000322  W2        4426            0.0000000000
     12223      4075  TIP3      OH2            25.2591194676      -21.8149548050       13.7617600322  W2        4427            0.0000000000
     12224      4075  TIP3      H1             25.4716894676      -22.7030548050       13.4748500322  W2        4427            0.0000000000
     12225      4075  TIP3      H2             25.3236294676      -21.8491848050       14.7161600322  W2        4427            0.0000000000
     12226      4076  TIP3      OH2            28.7674894676      -36.1508948050       12.9060900322  W2        4428            0.0000000000
     12227      4076  TIP3      H1             28.0931694676      -36.7803348050       13.1616700322  W2        4428            0.0000000000
     12228      4076  TIP3      H2             29.3314094676      -36.6350048050       12.3028800322  W2        4428            0.0000000000
     12229      4077  TIP3      OH2            33.9102094676      -38.0434948050       13.0188000322  W2        4429            0.0000000000
     12230      4077  TIP3      H1             34.5139694676      -37.4959548050       12.5169000322  W2        4429            0.0000000000
     12231      4077  TIP3      H2             33.0404094676      -37.7244548050       12.7782100322  W2        4429            0.0000000000
     12232      4078  TIP3      OH2            35.6372494676      -36.9046248050       11.3518900322  W2        4430            0.0000000000
     12233      4078  TIP3      H1             36.2489994676      -37.4190548050       10.8252500322  W2        4430            0.0000000000
     12234      4078  TIP3      H2             36.0195894676      -36.0274148050       11.3753300322  W2        4430            0.0000000000
     12235      4079  TIP3      OH2            21.0942394676      -37.5168648050       10.7280800322  W2        4431            0.0000000000
     12236      4079  TIP3      H1             20.3172194676      -37.7513748050       10.2206700322  W2        4431            0.0000000000
     12237      4079  TIP3      H2             21.6245994676      -38.3136548050       10.7368800322  W2        4431            0.0000000000
     12238      4080  TIP3      OH2            19.9305794676      -37.7190548050        6.5316900322  W2        4432            0.0000000000
     12239      4080  TIP3      H1             20.3696494676      -37.1080048050        5.9400400322  W2        4432            0.0000000000
     12240      4080  TIP3      H2             19.2968194676      -37.1806448050        7.0056900322  W2        4432            0.0000000000
     12241      4081  TIP3      OH2            25.6734994676      -37.5901548050       10.5413900322  W2        4433            0.0000000000
     12242      4081  TIP3      H1             26.5478394676      -37.2017248050       10.5118200322  W2        4433            0.0000000000
     12243      4081  TIP3      H2             25.5375794676      -37.8053748050       11.4641100322  W2        4433            0.0000000000
     12244      4082  TIP3      OH2            31.2303394676      -37.5601748050       12.1905600322  W2        4434            0.0000000000
     12245      4082  TIP3      H1             31.3064994676      -37.4650148050       11.2411600322  W2        4434            0.0000000000
     12246      4082  TIP3      H2             30.9552594676      -38.4678848050       12.3194700322  W2        4434            0.0000000000
     12247      4083  TIP3      OH2            32.5835994676      -37.5343948050        7.8830600322  W2        4435            0.0000000000
     12248      4083  TIP3      H1             31.8807094676      -36.9194748050        7.6732000322  W2        4435            0.0000000000
     12249      4083  TIP3      H2             32.1387394676      -38.3717248050        8.0141500322  W2        4435            0.0000000000
     12250      4084  TIP3      OH2            19.8315294676      -21.7708348050        7.4292000322  W2        4436            0.0000000000
     12251      4084  TIP3      H1             19.1465194676      -21.8089448050        6.7617100322  W2        4436            0.0000000000
     12252      4084  TIP3      H2             19.8352494676      -20.8580748050        7.7174100322  W2        4436            0.0000000000
     12253      4085  TIP3      OH2            21.7914894676      -35.8029048050        4.9741000322  W2        4437            0.0000000000
     12254      4085  TIP3      H1             22.2828294676      -36.4326648050        4.4466500322  W2        4437            0.0000000000
     12255      4085  TIP3      H2             22.4151194676      -35.5069648050        5.6372200322  W2        4437            0.0000000000
     12256      4086  TIP3      OH2            26.8174994676      -35.5097548050        7.4311500322  W2        4438            0.0000000000
     12257      4086  TIP3      H1             26.9956294676      -36.1564348050        8.1140100322  W2        4438            0.0000000000
     12258      4086  TIP3      H2             26.7641194676      -34.6759848050        7.8982600322  W2        4438            0.0000000000
     12259      4087  TIP3      OH2            28.6958794676      -20.5613448050        5.8268200322  W2        4439            0.0000000000
     12260      4087  TIP3      H1             29.5618994676      -20.1946048050        5.6486400322  W2        4439            0.0000000000
     12261      4087  TIP3      H2             28.4491594676      -21.0005448050        5.0129000322  W2        4439            0.0000000000
     12262      4088  TIP3      OH2            35.4048394676      -20.9983148050        8.5059300322  W2        4440            0.0000000000
     12263      4088  TIP3      H1             35.2105494676      -21.7461048050        7.9408900322  W2        4440            0.0000000000
     12264      4088  TIP3      H2             35.3658494676      -20.2403048050        7.9227200322  W2        4440            0.0000000000
     12265      4089  TIP3      OH2            21.6496494676      -20.8507548050        4.4544100322  W2        4443            0.0000000000
     12266      4089  TIP3      H1             21.3821094676      -20.5644648050        5.3277200322  W2        4443            0.0000000000
     12267      4089  TIP3      H2             22.4209094676      -21.3968348050        4.6066600322  W2        4443            0.0000000000
     12268      4090  TIP3      OH2            37.8634894676      -31.3812048050        9.6264300322  W2        4446            0.0000000000
     12269      4090  TIP3      H1             37.4158294676      -30.5353348050        9.6080800322  W2        4446            0.0000000000
     12270      4090  TIP3      H2             37.3026094676      -31.9607848050        9.1109400322  W2        4446            0.0000000000
     12271      4091  TIP3      OH2            37.6344394676      -24.0639548050       14.2612300322  W2        4448            0.0000000000
     12272      4091  TIP3      H1             38.5804994676      -24.2082548050       14.2421800322  W2        4448            0.0000000000
     12273      4091  TIP3      H2             37.5220694676      -23.2796748050       14.7983500322  W2        4448            0.0000000000
     12274      4092  TIP3      OH2            37.2011594676      -34.6487648050       11.2286000322  W2        4449            0.0000000000
     12275      4092  TIP3      H1             37.8319294676      -34.6775548050       11.9479900322  W2        4449            0.0000000000
     12276      4092  TIP3      H2             37.6505894676      -35.0738948050       10.4981900322  W2        4449            0.0000000000
     12277      4093  TIP3      OH2            37.1240394676      -19.7579348050       10.1414900322  W2        4452            0.0000000000
     12278      4093  TIP3      H1             36.4767494676      -20.2197648050        9.6086100322  W2        4452            0.0000000000
     12279      4093  TIP3      H2             37.4784994676      -20.4296048050       10.7241100322  W2        4452            0.0000000000
     12280      4094  TIP3      OH2            37.9939594676      -21.6772348050       11.9461100322  W2        4453            0.0000000000
     12281      4094  TIP3      H1             37.6596394676      -22.5575048050       12.1181300322  W2        4453            0.0000000000
     12282      4094  TIP3      H2             38.2161994676      -21.3317348050       12.8106700322  W2        4453            0.0000000000
     12283      4095  TIP3      OH2            38.0739094676      -28.6016948050       14.3976000322  W2        4454            0.0000000000
     12284      4095  TIP3      H1             38.2581994676      -28.6835248050       13.4618900322  W2        4454            0.0000000000
     12285      4095  TIP3      H2             38.9231994676      -28.7259948050       14.8212400322  W2        4454            0.0000000000
     12286      4096  TIP3      OH2            37.1966694676      -32.0197348050       14.4987900322  W2        4456            0.0000000000
     12287      4096  TIP3      H1             37.6886494676      -32.2406848050       13.7079900322  W2        4456            0.0000000000
     12288      4096  TIP3      H2             37.5587594676      -31.1793948050       14.7797400322  W2        4456            0.0000000000
     12289      4097  TIP3      OH2            37.5103194676      -35.7618248050        8.5530300322  W2        4457            0.0000000000
     12290      4097  TIP3      H1             36.5851594676      -35.5531648050        8.4235800322  W2        4457            0.0000000000
     12291      4097  TIP3      H2             37.9643094676      -35.2777448050        7.8632600322  W2        4457            0.0000000000
     12292      4098  TIP3      OH2           -26.3955005324       -9.5046348050       10.6868300322  W2        4459            0.0000000000
     12293      4098  TIP3      H1            -26.3063905324       -8.5608148050       10.5545400322  W2        4459            0.0000000000
     12294      4098  TIP3      H2            -27.0337405324       -9.7799948050       10.0287700322  W2        4459            0.0000000000
     12295      4099  TIP3      OH2           -27.4623705324      -10.2495648050       14.1056500322  W2        4460            0.0000000000
     12296      4099  TIP3      H1            -27.5006205324      -10.8959348050       14.8106100322  W2        4460            0.0000000000
     12297      4099  TIP3      H2            -27.7847205324      -10.7161248050       13.3345200322  W2        4460            0.0000000000
     12298      4100  TIP3      OH2           -23.7563505324       -7.3105248050       12.4071600322  W2        4462            0.0000000000
     12299      4100  TIP3      H1            -24.1970805324       -8.0309248050       12.8577200322  W2        4462            0.0000000000
     12300      4100  TIP3      H2            -23.7693805324       -6.5898048050       13.0369300322  W2        4462            0.0000000000
     12301      4101  TIP3      OH2           -34.1705605324       -6.1854648050       14.2335500322  W2        4463            0.0000000000
     12302      4101  TIP3      H1            -34.5400405324       -6.9874148050       13.8639800322  W2        4463            0.0000000000
     12303      4101  TIP3      H2            -33.2294505324       -6.3539748050       14.2798900322  W2        4463            0.0000000000
     12304      4102  TIP3      OH2           -37.5605105324      -12.5252048050        9.6264300322  W2        4464            0.0000000000
     12305      4102  TIP3      H1            -38.0081705324      -11.6793348050        9.6080800322  W2        4464            0.0000000000
     12306      4102  TIP3      H2            -38.1213905324      -13.1047848050        9.1109400322  W2        4464            0.0000000000
     12307      4103  TIP3      OH2           -36.8499005324      -10.3632448050       11.7522300322  W2        4465            0.0000000000
     12308      4103  TIP3      H1            -36.6365505324      -11.1330848050       12.2795300322  W2        4465            0.0000000000
     12309      4103  TIP3      H2            -36.1121405324      -10.2735748050       11.1489900322  W2        4465            0.0000000000
     12310      4104  TIP3      OH2           -26.6448005324       -2.2063548050       12.6192000322  W2        4466            0.0000000000
     12311      4104  TIP3      H1            -26.0251605324       -2.8828848050       12.3461200322  W2        4466            0.0000000000
     12312      4104  TIP3      H2            -26.8530605324       -2.4242748050       13.5276900322  W2        4466            0.0000000000
     12313      4105  TIP3      OH2           -29.0729305324       -7.8174248050       14.5117500322  W2        4467            0.0000000000
     12314      4105  TIP3      H1            -28.7691405324       -8.5032848050       13.9171600322  W2        4467            0.0000000000
     12315      4105  TIP3      H2            -28.3515305324       -7.6985548050       15.1295500322  W2        4467            0.0000000000
     12316      4106  TIP3      OH2           -25.9322305324      -13.4231848050       14.8392300322  W2        4469            0.0000000000
     12317      4106  TIP3      H1            -25.7896405324      -14.3694848050       14.8593900322  W2        4469            0.0000000000
     12318      4106  TIP3      H2            -26.0383305324      -13.2162048050       13.9107200322  W2        4469            0.0000000000
     12319      4107  TIP3      OH2           -32.7774005324      -15.3215448050       12.1117100322  W2        4470            0.0000000000
     12320      4107  TIP3      H1            -32.7342905324      -14.4616948050       11.6933400322  W2        4470            0.0000000000
     12321      4107  TIP3      H2            -33.2349905324      -15.8740748050       11.4780300322  W2        4470            0.0000000000
     12322      4108  TIP3      OH2           -25.0551305324      -15.1909848050       10.5125400322  W2        4471            0.0000000000
     12323      4108  TIP3      H1            -24.4087005324      -15.5196648050       11.1373000322  W2        4471            0.0000000000
     12324      4108  TIP3      H2            -24.5451905324      -14.6730848050        9.8896800322  W2        4471            0.0000000000
     12325      4109  TIP3      OH2           -36.1572505324      -12.9249648050       12.8738500322  W2        4472            0.0000000000
     12326      4109  TIP3      H1            -35.5035905324      -13.4747948050       13.3058600322  W2        4472            0.0000000000
     12327      4109  TIP3      H2            -36.1333205324      -13.1990648050       11.9570500322  W2        4472            0.0000000000
     12328      4110  TIP3      OH2           -31.0008005324      -11.3748348050       12.0890000322  W2        4473            0.0000000000
     12329      4110  TIP3      H1            -30.3847005324      -11.9012948050       12.5984000322  W2        4473            0.0000000000
     12330      4110  TIP3      H2            -31.5869205324      -12.0149648050       11.6853600322  W2        4473            0.0000000000
     12331      4111  TIP3      OH2           -26.5982305324       -6.9035948050        9.7297000322  W2        4476            0.0000000000
     12332      4111  TIP3      H1            -26.8937205324       -7.2263648050        8.8783900322  W2        4476            0.0000000000
     12333      4111  TIP3      H2            -26.9224505324       -6.0039248050        9.7709600322  W2        4476            0.0000000000
     12334      4112  TIP3      OH2           -23.2912905324      -15.9000548050       12.4931300322  W2        4478            0.0000000000
     12335      4112  TIP3      H1            -23.5064905324      -16.6657148050       13.0257300322  W2        4478            0.0000000000
     12336      4112  TIP3      H2            -22.6355505324      -15.4275948050       13.0059800322  W2        4478            0.0000000000
     12337      4113  TIP3      OH2           -34.3734805324      -14.5115248050       14.1380100322  W2        4479            0.0000000000
     12338      4113  TIP3      H1            -33.7598505324      -13.8787648050       14.5112500322  W2        4479            0.0000000000
     12339      4113  TIP3      H2            -33.8614105324      -14.9840248050       13.4817000322  W2        4479            0.0000000000
     12340      4114  TIP3      OH2           -36.8695505324       -7.0930448050        8.0422400322  W2        4481            0.0000000000
     12341      4114  TIP3      H1            -37.1414605324       -6.8639448050        7.1535300322  W2        4481            0.0000000000
     12342      4114  TIP3      H2            -36.8239805324       -6.2551648050        8.5027700322  W2        4481            0.0000000000
     12343      4115  TIP3      OH2           -23.2445805324       -5.4714548050       14.7550900322  W2        4482            0.0000000000
     12344      4115  TIP3      H1            -24.1862105324       -5.4130648050       14.9167800322  W2        4482            0.0000000000
     12345      4115  TIP3      H2            -22.9679705324       -4.5654048050       14.6180600322  W2        4482            0.0000000000
     12346      4116  TIP3      OH2           -29.9407405324      -19.0981948050       13.6382800322  W2        4484            0.0000000000
     12347      4116  TIP3      H1            -30.0583205324      -20.0465948050       13.5841100322  W2        4484            0.0000000000
     12348      4116  TIP3      H2            -30.7957305324      -18.7655848050       13.9113900322  W2        4484            0.0000000000
     12349      4117  TIP3      OH2           -24.9924605324       -3.6901048050       11.3802500322  W2        4485            0.0000000000
     12350      4117  TIP3      H1            -24.5672305324       -4.3973148050       10.8952100322  W2        4485            0.0000000000
     12351      4117  TIP3      H2            -24.6754605324       -2.8888348050       10.9634700322  W2        4485            0.0000000000
     12352      4118  TIP3      OH2           -23.8328105324       -5.7892548050        9.8889100322  W2        4486            0.0000000000
     12353      4118  TIP3      H1            -24.0903305324       -6.4792448050        9.2775000322  W2        4486            0.0000000000
     12354      4118  TIP3      H2            -23.7617305324       -6.2321348050       10.7345000322  W2        4486            0.0000000000
     12355      4119  TIP3      OH2           -27.6742505324      -10.2606348050        8.1388600322  W2        4488            0.0000000000
     12356      4119  TIP3      H1            -28.3857005324       -9.7256648050        7.7869100322  W2        4488            0.0000000000
     12357      4119  TIP3      H2            -26.9832905324      -10.2054248050        7.4787500322  W2        4488            0.0000000000
     12358      4120  TIP3      OH2           -27.6203305324      -11.8032048050        5.1773600322  W2        4489            0.0000000000
     12359      4120  TIP3      H1            -26.9193405324      -11.7805148050        5.8287600322  W2        4489            0.0000000000
     12360      4120  TIP3      H2            -27.3180405324      -12.4312348050        4.5212900322  W2        4489            0.0000000000
     12361      4121  TIP3      OH2           -24.2684805324      -10.0513048050        9.0904500322  W2        4491            0.0000000000
     12362      4121  TIP3      H1            -25.0003805324       -9.8229348050        9.6635100322  W2        4491            0.0000000000
     12363      4121  TIP3      H2            -23.8212605324      -10.7650348050        9.5452000322  W2        4491            0.0000000000
     12364      4122  TIP3      OH2           -32.6231105324       -9.4206848050       10.9729500322  W2        4493            0.0000000000
     12365      4122  TIP3      H1            -32.9535905324       -9.7913448050       10.1546500322  W2        4493            0.0000000000
     12366      4122  TIP3      H2            -32.0347005324      -10.0912848050       11.3197800322  W2        4493            0.0000000000
     12367      4123  TIP3      OH2           -31.2563605324       -5.9926248050       13.6541700322  W2        4494            0.0000000000
     12368      4123  TIP3      H1            -31.3512305324       -6.5713148050       12.8976300322  W2        4494            0.0000000000
     12369      4123  TIP3      H2            -30.5270005324       -6.3640548050       14.1504500322  W2        4494            0.0000000000
     12370      4124  TIP3      OH2           -32.2565605324      -10.6521248050       14.6064500322  W2        4495            0.0000000000
     12371      4124  TIP3      H1            -31.6913105324      -10.5307048050       13.8435700322  W2        4495            0.0000000000
     12372      4124  TIP3      H2            -31.9376705324      -10.0146248050       15.2453000322  W2        4495            0.0000000000
     12373      4125  TIP3      OH2           -25.3975305324      -10.8890148050        6.7755700322  W2        4498            0.0000000000
     12374      4125  TIP3      H1            -24.8179805324      -10.7389848050        7.5224600322  W2        4498            0.0000000000
     12375      4125  TIP3      H2            -24.9835305324      -10.4182748050        6.0522100322  W2        4498            0.0000000000
     12376      4126  TIP3      OH2           -27.6710405324       -4.1521648050       10.2108800322  W2        4500            0.0000000000
     12377      4126  TIP3      H1            -27.1972805324       -3.8565348050       10.9883000322  W2        4500            0.0000000000
     12378      4126  TIP3      H2            -28.2341105324       -3.4140048050        9.9778400322  W2        4500            0.0000000000
     12379      4127  TIP3      OH2           -21.6986905324      -19.1389748050        6.5885400322  W2        4502            0.0000000000
     12380      4127  TIP3      H1            -22.5986205324      -19.0000748050        6.8836000322  W2        4502            0.0000000000
     12381      4127  TIP3      H2            -21.4468505324      -18.3075148050        6.1867100322  W2        4502            0.0000000000
     12382      4128  TIP3      OH2           -33.6328405324      -10.3512548050        8.5622300322  W2        4503            0.0000000000
     12383      4128  TIP3      H1            -33.9247105324       -9.5830848050        8.0713600322  W2        4503            0.0000000000
     12384      4128  TIP3      H2            -34.3073205324      -11.0106348050        8.3993700322  W2        4503            0.0000000000
     12385      4129  TIP3      OH2           -20.5095505324       -4.7727348050        4.9649300322  W2        4504            0.0000000000
     12386      4129  TIP3      H1            -20.4362005324       -3.8337148050        5.1354600322  W2        4504            0.0000000000
     12387      4129  TIP3      H2            -19.6040405324       -5.0778748050        4.9086600322  W2        4504            0.0000000000
     12388      4130  TIP3      OH2           -37.7895605324       -5.2079548050       14.2612300322  W2        4506            0.0000000000
     12389      4130  TIP3      H1            -36.8435005324       -5.3522548050       14.2421800322  W2        4506            0.0000000000
     12390      4130  TIP3      H2            -37.9019305324       -4.4236748050       14.7983500322  W2        4506            0.0000000000
     12391      4131  TIP3      OH2           -28.1987305324       -1.1956948050        8.6258000322  W2        4509            0.0000000000
     12392      4131  TIP3      H1            -28.2741305324       -1.3169748050        7.6793200322  W2        4509            0.0000000000
     12393      4131  TIP3      H2            -28.1658605324       -0.2464248050        8.7442600322  W2        4509            0.0000000000
     12394      4132  TIP3      OH2           -34.5453505324       -2.4069948050       10.4067000322  W2        4510            0.0000000000
     12395      4132  TIP3      H1            -34.3933105324       -2.7549548050       11.2853500322  W2        4510            0.0000000000
     12396      4132  TIP3      H2            -35.3963105324       -2.7632648050       10.1514200322  W2        4510            0.0000000000
     12397      4133  TIP3      OH2           -25.0971305324       -2.0416748050        5.6280400322  W2        4511            0.0000000000
     12398      4133  TIP3      H1            -24.7222905324       -2.7860648050        5.1573000322  W2        4511            0.0000000000
     12399      4133  TIP3      H2            -25.0927605324       -2.3116148050        6.5463700322  W2        4511            0.0000000000
     12400      4134  TIP3      OH2           -25.4283205324       -2.1159648050        8.3772600322  W2        4512            0.0000000000
     12401      4134  TIP3      H1            -26.3633405324       -2.0157748050        8.5559600322  W2        4512            0.0000000000
     12402      4134  TIP3      H2            -25.1481305324       -2.8253648050        8.9555800322  W2        4512            0.0000000000
     12403      4135  TIP3      OH2           -32.6719805324      -18.1947448050       14.4159100322  W2        4515            0.0000000000
     12404      4135  TIP3      H1            -33.5336105324      -18.2819248050       14.0082000322  W2        4515            0.0000000000
     12405      4135  TIP3      H2            -32.6944105324      -17.3387348050       14.8436700322  W2        4515            0.0000000000
     12406      4136  TIP3      OH2           -23.9202205324       -9.8561848050        4.4053600322  W2        4518            0.0000000000
     12407      4136  TIP3      H1            -23.8781405324      -10.0787948050        3.4753600322  W2        4518            0.0000000000
     12408      4136  TIP3      H2            -23.0710105324       -9.4574748050        4.5953500322  W2        4518            0.0000000000
     12409      4137  TIP3      OH2           -28.3474705324      -15.9803648050        5.0756900322  W2        4519            0.0000000000
     12410      4137  TIP3      H1            -28.6009905324      -15.9612048050        5.9985000322  W2        4519            0.0000000000
     12411      4137  TIP3      H2            -28.6042605324      -16.8518248050        4.7743100322  W2        4519            0.0000000000
     12412      4138  TIP3      OH2           -32.5840605324      -13.0082848050       10.4229300322  W2        4521            0.0000000000
     12413      4138  TIP3      H1            -33.4767705324      -13.3486748050       10.3643100322  W2        4521            0.0000000000
     12414      4138  TIP3      H2            -32.1334005324      -13.3851948050        9.6672500322  W2        4521            0.0000000000
     12415      4139  TIP3      OH2           -27.0485105324      -12.5922548050        9.2400100322  W2        4522            0.0000000000
     12416      4139  TIP3      H1            -27.4574805324      -11.7773948050        8.9484900322  W2        4522            0.0000000000
     12417      4139  TIP3      H2            -26.3278905324      -12.7322448050        8.6257200322  W2        4522            0.0000000000
     12418      4140  TIP3      OH2           -26.0437405324      -13.1462148050       12.0539800322  W2        4524            0.0000000000
     12419      4140  TIP3      H1            -26.2392905324      -12.5405348050       11.3390400322  W2        4524            0.0000000000
     12420      4140  TIP3      H2            -25.8624805324      -13.9796948050       11.6196100322  W2        4524            0.0000000000
     12421      4141  TIP3      OH2           -31.4651805324      -15.5347148050        4.1767300322  W2        4526            0.0000000000
     12422      4141  TIP3      H1            -31.8961105324      -15.9797048050        4.9064700322  W2        4526            0.0000000000
     12423      4141  TIP3      H2            -32.1833105324      -15.1630848050        3.6644800322  W2        4526            0.0000000000
     12424      4142  TIP3      OH2           -38.2228405324      -15.7927648050       11.2286000322  W2        4527            0.0000000000
     12425      4142  TIP3      H1            -37.5920705324      -15.8215548050       11.9479900322  W2        4527            0.0000000000
     12426      4142  TIP3      H2            -37.7734105324      -16.2178948050       10.4981900322  W2        4527            0.0000000000
     12427      4143  TIP3      OH2           -36.9486305324      -15.0465648050        6.6526400322  W2        4528            0.0000000000
     12428      4143  TIP3      H1            -36.4744605324      -14.4555748050        6.0677300322  W2        4528            0.0000000000
     12429      4143  TIP3      H2            -37.6659905324      -14.5162748050        6.9996500322  W2        4528            0.0000000000
     12430      4144  TIP3      OH2           -30.0025305324      -15.5805348050       11.5093400322  W2        4530            0.0000000000
     12431      4144  TIP3      H1            -30.9134205324      -15.5238548050       11.7979400322  W2        4530            0.0000000000
     12432      4144  TIP3      H2            -29.4972405324      -15.6409848050       12.3200600322  W2        4530            0.0000000000
     12433      4145  TIP3      OH2           -35.1741905324      -13.9519048050       10.3361000322  W2        4531            0.0000000000
     12434      4145  TIP3      H1            -36.0633905324      -13.8523548050        9.9960600322  W2        4531            0.0000000000
     12435      4145  TIP3      H2            -34.8777005324      -14.7936048050        9.9898900322  W2        4531            0.0000000000
     12436      4146  TIP3      OH2           -31.5210105324      -13.9516448050        7.9925600322  W2        4532            0.0000000000
     12437      4146  TIP3      H1            -30.5894605324      -13.8226448050        8.1708700322  W2        4532            0.0000000000
     12438      4146  TIP3      H2            -31.7359805324      -13.2822148050        7.3430300322  W2        4532            0.0000000000
     12439      4147  TIP3      OH2           -25.5973405324      -16.3459048050       14.7735200322  W2        4533            0.0000000000
     12440      4147  TIP3      H1            -26.2741805324      -16.2145948050       15.4374900322  W2        4533            0.0000000000
     12441      4147  TIP3      H2            -26.0828505324      -16.5009548050       13.9632900322  W2        4533            0.0000000000
     12442      4148  TIP3      OH2           -32.8469905324      -12.7574248050        5.5591700322  W2        4534            0.0000000000
     12443      4148  TIP3      H1            -33.3894805324      -13.1370448050        4.8679300322  W2        4534            0.0000000000
     12444      4148  TIP3      H2            -32.0135005324      -12.5629548050        5.1305800322  W2        4534            0.0000000000
     12445      4149  TIP3      OH2           -28.6825605324      -12.7932348050       13.3963000322  W2        4537            0.0000000000
     12446      4149  TIP3      H1            -28.1182205324      -13.3395748050       12.8492600322  W2        4537            0.0000000000
     12447      4149  TIP3      H2            -28.8302205324      -13.3150448050       14.1850600322  W2        4537            0.0000000000
     12448      4150  TIP3      OH2           -33.6805905324      -16.6566248050        9.8147800322  W2        4538            0.0000000000
     12449      4150  TIP3      H1            -33.9976405324      -17.5590948050        9.7793200322  W2        4538            0.0000000000
     12450      4150  TIP3      H2            -32.8991805324      -16.6548848050        9.2619400322  W2        4538            0.0000000000
     12451      4151  TIP3      OH2           -29.5117105324       -8.1918548050        7.4949800322  W2        4540            0.0000000000
     12452      4151  TIP3      H1            -30.2566105324       -8.6993248050        7.1727700322  W2        4540            0.0000000000
     12453      4151  TIP3      H2            -29.6459905324       -8.1430548050        8.4414600322  W2        4540            0.0000000000
     12454      4152  TIP3      OH2           -25.6140305324      -15.3778648050        5.6942400322  W2        4542            0.0000000000
     12455      4152  TIP3      H1            -26.5526105324      -15.2663048050        5.5431200322  W2        4542            0.0000000000
     12456      4152  TIP3      H2            -25.3168205324      -14.5211748050        6.0008100322  W2        4542            0.0000000000
     12457      4153  TIP3      OH2           -24.8956805324      -13.5105948050        7.3549800322  W2        4544            0.0000000000
     12458      4153  TIP3      H1            -24.0037805324      -13.6480948050        7.6741000322  W2        4544            0.0000000000
     12459      4153  TIP3      H2            -24.8393205324      -12.7199848050        6.8183300322  W2        4544            0.0000000000
     12460      4154  TIP3      OH2           -34.3868805324       -8.8968548050       13.2647700322  W2        4545            0.0000000000
     12461      4154  TIP3      H1            -33.6421605324       -8.8992848050       12.6634200322  W2        4545            0.0000000000
     12462      4154  TIP3      H2            -34.3092205324       -9.7204748050       13.7462800322  W2        4545            0.0000000000
     12463      4155  TIP3      OH2           -27.3863005324       -6.7334248050        6.5204400322  W2        4546            0.0000000000
     12464      4155  TIP3      H1            -27.6814605324       -5.9066348050        6.9019200322  W2        4546            0.0000000000
     12465      4155  TIP3      H2            -28.0893005324       -7.3527348050        6.7165800322  W2        4546            0.0000000000
     12466      4156  TIP3      OH2           -20.0108105324      -13.3011848050        7.0496500322  W2        4550            0.0000000000
     12467      4156  TIP3      H1            -20.5651805324      -13.6973848050        6.3774000322  W2        4550            0.0000000000
     12468      4156  TIP3      H2            -19.9104505324      -12.3906648050        6.7719800322  W2        4550            0.0000000000
     12469      4157  TIP3      OH2           -21.7156405324       -4.5151448050        7.5148600322  W2        4552            0.0000000000
     12470      4157  TIP3      H1            -22.0885305324       -5.3407648050        7.8239200322  W2        4552            0.0000000000
     12471      4157  TIP3      H2            -21.4382905324       -4.6982048050        6.6172000322  W2        4552            0.0000000000
     12472      4158  TIP3      OH2           -24.5552505324       -9.7071948050       14.5360500322  W2        4553            0.0000000000
     12473      4158  TIP3      H1            -25.4835605324       -9.9390048050       14.5089800322  W2        4553            0.0000000000
     12474      4158  TIP3      H2            -24.1041405324      -10.4842148050       14.2059300322  W2        4553            0.0000000000
     12475      4159  TIP3      OH2           -32.0119405324       -5.3790348050       10.6689200322  W2        4554            0.0000000000
     12476      4159  TIP3      H1            -31.4847205324       -4.6055948050       10.4688000322  W2        4554            0.0000000000
     12477      4159  TIP3      H2            -32.8920905324       -5.1541148050       10.3673200322  W2        4554            0.0000000000
     12478      4160  TIP3      OH2           -36.2571705324      -10.5166248050        5.2561600322  W2        4555            0.0000000000
     12479      4160  TIP3      H1            -35.6411805324       -9.8899048050        5.6356400322  W2        4555            0.0000000000
     12480      4160  TIP3      H2            -37.1189105324      -10.2006448050        5.5278100322  W2        4555            0.0000000000
     12481      4161  TIP3      OH2           -30.5847105324       -7.7160448050       10.2453500322  W2        4556            0.0000000000
     12482      4161  TIP3      H1            -30.8257105324       -6.7906048050       10.2868800322  W2        4556            0.0000000000
     12483      4161  TIP3      H2            -31.3253505324       -8.1749148050       10.6417400322  W2        4556            0.0000000000
     12484      4162  TIP3      OH2           -31.9016305324       -2.6942848050        9.7905700322  W2        4558            0.0000000000
     12485      4162  TIP3      H1            -32.8515805324       -2.5885448050        9.8419000322  W2        4558            0.0000000000
     12486      4162  TIP3      H2            -31.5498205324       -1.8735448050       10.1353200322  W2        4558            0.0000000000
     12487      4163  TIP3      OH2           -24.3230805324       -6.5385648050        5.3349200322  W2        4560            0.0000000000
     12488      4163  TIP3      H1            -23.9697705324       -6.9185848050        6.1392700322  W2        4560            0.0000000000
     12489      4163  TIP3      H2            -25.2717305324       -6.6320848050        5.4218500322  W2        4560            0.0000000000
     12490      4164  TIP3      OH2           -19.8196405324       -2.0593148050        5.5359400322  W2        4562            0.0000000000
     12491      4164  TIP3      H1            -19.0758505324       -1.4732648050        5.3961000322  W2        4562            0.0000000000
     12492      4164  TIP3      H2            -20.5138305324       -1.4907348050        5.8691800322  W2        4562            0.0000000000
     12493      4165  TIP3      OH2           -23.4571505324       -7.8663648050        7.5617100322  W2        4564            0.0000000000
     12494      4165  TIP3      H1            -23.7343905324       -8.5944348050        8.1178200322  W2        4564            0.0000000000
     12495      4165  TIP3      H2            -22.5298505324       -7.7471648050        7.7669700322  W2        4564            0.0000000000
     12496      4166  TIP3      OH2           -30.2323005324       -5.4269548050        3.7819200322  W2        4566            0.0000000000
     12497      4166  TIP3      H1            -29.9933205324       -6.1751448050        3.2348100322  W2        4566            0.0000000000
     12498      4166  TIP3      H2            -30.5011705324       -5.8147848050        4.6147000322  W2        4566            0.0000000000
     12499      4167  TIP3      OH2           -31.2952405324       -5.8565748050        6.2381800322  W2        4567            0.0000000000
     12500      4167  TIP3      H1            -31.1484405324       -6.3765948050        7.0282700322  W2        4567            0.0000000000
     12501      4167  TIP3      H2            -31.2980705324       -4.9498148050        6.5447700322  W2        4567            0.0000000000
     12502      4168  TIP3      OH2           -34.8421305324       -8.6042448050        6.7487200322  W2        4568            0.0000000000
     12503      4168  TIP3      H1            -35.5282005324       -8.2519948050        7.3156900322  W2        4568            0.0000000000
     12504      4168  TIP3      H2            -34.3193405324       -7.8412848050        6.5021500322  W2        4568            0.0000000000
     12505      4169  TIP3      OH2           -26.2261305324      -16.2896948050        8.1248500322  W2        4570            0.0000000000
     12506      4169  TIP3      H1            -26.0063005324      -15.8181548050        7.3213900322  W2        4570            0.0000000000
     12507      4169  TIP3      H2            -25.6677305324      -15.8954348050        8.7949100322  W2        4570            0.0000000000
     12508      4170  TIP3      OH2           -28.5575205324       -4.1592148050        6.9876000322  W2        4571            0.0000000000
     12509      4170  TIP3      H1            -29.3739105324       -3.6622448050        7.0400300322  W2        4571            0.0000000000
     12510      4170  TIP3      H2            -28.0278905324       -3.6838648050        6.3474800322  W2        4571            0.0000000000
     12511      4171  TIP3      OH2           -29.0261405324      -14.5618148050        8.9596900322  W2        4572            0.0000000000
     12512      4171  TIP3      H1            -28.2138805324      -14.0574948050        9.0058600322  W2        4572            0.0000000000
     12513      4171  TIP3      H2            -29.2708405324      -14.7068448050        9.8736500322  W2        4572            0.0000000000
     12514      4172  TIP3      OH2           -28.1424705324      -17.4805148050        9.8978000322  W2        4574            0.0000000000
     12515      4172  TIP3      H1            -28.4891205324      -16.8634548050       10.5422300322  W2        4574            0.0000000000
     12516      4172  TIP3      H2            -27.4837805324      -16.9799448050        9.4163500322  W2        4574            0.0000000000
     12517      4173  TIP3      OH2           -31.2192105324       -3.1154948050        6.9692900322  W2        4575            0.0000000000
     12518      4173  TIP3      H1            -31.0583405324       -2.3157448050        6.4685500322  W2        4575            0.0000000000
     12519      4173  TIP3      H2            -31.4164305324       -2.8088948050        7.8543500322  W2        4575            0.0000000000
     12520      4174  TIP3      OH2           -32.4847705324      -16.4175748050        6.5850500322  W2        4576            0.0000000000
     12521      4174  TIP3      H1            -32.5682905324      -15.5292648050        6.9316900322  W2        4576            0.0000000000
     12522      4174  TIP3      H2            -31.5947405324      -16.6829048050        6.8167300322  W2        4576            0.0000000000
     12523      4175  TIP3      OH2           -23.6838205324      -11.9184148050       13.0750500322  W2        4578            0.0000000000
     12524      4175  TIP3      H1            -24.4813805324      -12.3333948050       12.7465500322  W2        4578            0.0000000000
     12525      4175  TIP3      H2            -23.2387105324      -12.6090448050       13.5661000322  W2        4578            0.0000000000
     12526      4176  TIP3      OH2           -34.2262405324       -5.9903548050        5.6455000322  W2        4579            0.0000000000
     12527      4176  TIP3      H1            -33.6340905324       -5.2908748050        5.9217400322  W2        4579            0.0000000000
     12528      4176  TIP3      H2            -33.7669405324       -6.4234048050        4.9259600322  W2        4579            0.0000000000
     12529      4177  TIP3      OH2           -35.9103205324      -13.3260548050        4.7614400322  W2        4580            0.0000000000
     12530      4177  TIP3      H1            -35.9550605324      -12.3867448050        4.9401400322  W2        4580            0.0000000000
     12531      4177  TIP3      H2            -36.7980005324      -13.5615648050        4.4916500322  W2        4580            0.0000000000
     12532      4178  TIP3      OH2           -22.5973605324       -2.6621648050       14.6974000322  W2        4581            0.0000000000
     12533      4178  TIP3      H1            -22.7529305324       -1.9837248050       14.0403300322  W2        4581            0.0000000000
     12534      4178  TIP3      H2            -21.6647205324       -2.5902348050       14.9004600322  W2        4581            0.0000000000
     12535      4179  TIP3      OH2           -35.1021205324      -18.5443948050       13.4345400322  W2        4582            0.0000000000
     12536      4179  TIP3      H1            -35.3311405324      -18.4851448050       12.5070400322  W2        4582            0.0000000000
     12537      4179  TIP3      H2            -35.5447805324      -19.3358448050       13.7409500322  W2        4582            0.0000000000
     12538      4180  TIP3      OH2           -36.1717905324       -4.6036848050        9.5951200322  W2        4583            0.0000000000
     12539      4180  TIP3      H1            -37.0039305324       -4.1314148050        9.6222600322  W2        4583            0.0000000000
     12540      4180  TIP3      H2            -35.6259605324       -4.0939248050        8.9964300322  W2        4583            0.0000000000
     12541      4181  TIP3      OH2           -28.1941205324       -3.5638148050        3.9205200322  W2        4586            0.0000000000
     12542      4181  TIP3      H1            -28.8380205324       -4.1949548050        4.2418900322  W2        4586            0.0000000000
     12543      4181  TIP3      H2            -27.4322905324       -4.0950148050        3.6888700322  W2        4586            0.0000000000
     12544      4182  TIP3      OH2           -23.5898305324       -3.7468248050        4.1543200322  W2        4588            0.0000000000
     12545      4182  TIP3      H1            -23.3067905324       -4.5413048050        4.6070100322  W2        4588            0.0000000000
     12546      4182  TIP3      H2            -22.8500405324       -3.5137248050        3.5934300322  W2        4588            0.0000000000
     12547      4183  TIP3      OH2           -32.6351005324       -7.8373348050        4.0118100322  W2        4590            0.0000000000
     12548      4183  TIP3      H1            -32.5706905324       -8.6313748050        4.5424500322  W2        4590            0.0000000000
     12549      4183  TIP3      H2            -31.9821805324       -7.9560548050        3.3220100322  W2        4590            0.0000000000
     12550      4184  TIP3      OH2           -27.2827605324       -6.7901648050        3.7476100322  W2        4592            0.0000000000
     12551      4184  TIP3      H1            -27.5513505324       -6.6099548050        4.6485000322  W2        4592            0.0000000000
     12552      4184  TIP3      H2            -27.4892005324       -7.7155448050        3.6161900322  W2        4592            0.0000000000
     12553      4185  TIP3      OH2           -31.4857205324       -9.8647148050        6.3176100322  W2        4595            0.0000000000
     12554      4185  TIP3      H1            -31.9455205324      -10.3488848050        7.0034600322  W2        4595            0.0000000000
     12555      4185  TIP3      H2            -31.2308505324      -10.5331748050        5.6816600322  W2        4595            0.0000000000
     12556      4186  TIP3      OH2           -30.4146805324      -11.6215348050        4.5799300322  W2        4597            0.0000000000
     12557      4186  TIP3      H1            -30.5951805324      -11.7764148050        3.6527600322  W2        4597            0.0000000000
     12558      4186  TIP3      H2            -29.4646305324      -11.5136648050        4.6247200322  W2        4597            0.0000000000
     12559      4187  TIP3      OH2           -21.0248505324       -9.2671148050        4.0257400322  W2        4599            0.0000000000
     12560      4187  TIP3      H1            -21.2983705324       -9.6915648050        3.2125700322  W2        4599            0.0000000000
     12561      4187  TIP3      H2            -20.9854405324       -8.3356648050        3.8087800322  W2        4599            0.0000000000
     12562      4188  TIP3      OH2           -30.5175105324       -0.9311648050        5.5812900322  W2        4613            0.0000000000
     12563      4188  TIP3      H1            -29.5844405324       -0.7732948050        5.7251300322  W2        4613            0.0000000000
     12564      4188  TIP3      H2            -30.7816305324       -0.2558648050        4.9564400322  W2        4613            0.0000000000
     12565      4189  TIP3      OH2           -36.9490205324       -6.2947848050        5.0641000322  W2        4614            0.0000000000
     12566      4189  TIP3      H1            -36.0351005324       -6.2158948050        5.3374900322  W2        4614            0.0000000000
     12567      4189  TIP3      H2            -36.9417105324       -6.9818248050        4.3976600322  W2        4614            0.0000000000
     12568      4190  TIP3      OH2           -38.2999605324       -0.9019348050       10.1414900322  W2        4615            0.0000000000
     12569      4190  TIP3      H1            -38.9472505324       -1.3637648050        9.6086100322  W2        4615            0.0000000000
     12570      4190  TIP3      H2            -37.9455005324       -1.5736048050       10.7241100322  W2        4615            0.0000000000
     12571      4191  TIP3      OH2           -37.4300405324       -2.8212348050       11.9461100322  W2        4616            0.0000000000
     12572      4191  TIP3      H1            -37.7643605324       -3.7015048050       12.1181300322  W2        4616            0.0000000000
     12573      4191  TIP3      H2            -37.2078005324       -2.4757348050       12.8106700322  W2        4616            0.0000000000
     12574      4192  TIP3      OH2           -20.5665705324       -8.3983048050        8.0007800322  W2        4620            0.0000000000
     12575      4192  TIP3      H1            -19.7164305324       -7.9772148050        8.1279400322  W2        4620            0.0000000000
     12576      4192  TIP3      H2            -20.5610605324       -9.1382948050        8.6079200322  W2        4620            0.0000000000
     12577      4193  TIP3      OH2           -20.1720105324      -10.3445648050        9.8243500322  W2        4621            0.0000000000
     12578      4193  TIP3      H1            -20.8985505324      -10.8243048050       10.2221100322  W2        4621            0.0000000000
     12579      4193  TIP3      H2            -19.5906805324      -10.1390948050       10.5565100322  W2        4621            0.0000000000
     12580      4194  TIP3      OH2           -20.4128905324       -7.5598148050       14.7721100322  W2        4622            0.0000000000
     12581      4194  TIP3      H1            -19.5794705324       -7.9378148050       14.4914700322  W2        4622            0.0000000000
     12582      4194  TIP3      H2            -20.3008605324       -6.6166948050       14.6530200322  W2        4622            0.0000000000
     12583      4195  TIP3      OH2           -19.9037005324      -10.4437148050        6.2154800322  W2        4624            0.0000000000
     12584      4195  TIP3      H1            -20.4255905324      -10.0873048050        5.4965700322  W2        4624            0.0000000000
     12585      4195  TIP3      H2            -19.9367805324       -9.7689348050        6.8935700322  W2        4624            0.0000000000
     12586      4196  TIP3      OH2           -21.5548005324      -13.2041548050        4.7661900322  W2        4625            0.0000000000
     12587      4196  TIP3      H1            -21.4583605324      -12.5374548050        4.0861600322  W2        4625            0.0000000000
     12588      4196  TIP3      H2            -21.6948405324      -14.0195248050        4.2847400322  W2        4625            0.0000000000
     12589      4197  TIP3      OH2           -22.3853305324      -11.8239148050       10.3872200322  W2        4626            0.0000000000
     12590      4197  TIP3      H1            -22.5354505324      -12.7690548050       10.3670000322  W2        4626            0.0000000000
     12591      4197  TIP3      H2            -22.7388805324      -11.5427748050       11.2311300322  W2        4626            0.0000000000
     12592      4198  TIP3      OH2           -37.3500905324       -9.7456948050       14.3976000322  W2        4627            0.0000000000
     12593      4198  TIP3      H1            -37.1658005324       -9.8275248050       13.4618900322  W2        4627            0.0000000000
     12594      4198  TIP3      H2            -36.5008005324       -9.8699948050       14.8212400322  W2        4627            0.0000000000
     12595      4199  TIP3      OH2           -22.3074205324      -15.7961748050        3.8837400322  W2        4630            0.0000000000
     12596      4199  TIP3      H1            -21.6968405324      -16.1674948050        4.5205600322  W2        4630            0.0000000000
     12597      4199  TIP3      H2            -23.1442705324      -16.2174848050        4.0797400322  W2        4630            0.0000000000
     12598      4200  TIP3      OH2           -22.6748505324      -14.2413348050        8.8497300322  W2        4631            0.0000000000
     12599      4200  TIP3      H1            -22.3951405324      -15.1482948050        8.9739000322  W2        4631            0.0000000000
     12600      4200  TIP3      H2            -21.9156805324      -13.8071848050        8.4606500322  W2        4631            0.0000000000
     12601      4201  TIP3      OH2           -22.0630205324      -13.6595948050       14.2856200322  W2        4632            0.0000000000
     12602      4201  TIP3      H1            -21.1302205324      -13.4476048050       14.2512200322  W2        4632            0.0000000000
     12603      4201  TIP3      H2            -22.2982705324      -13.5583848050       15.2079200322  W2        4632            0.0000000000
     12604      4202  TIP3      OH2           -22.0613705324      -16.9784048050        8.8979300322  W2        4636            0.0000000000
     12605      4202  TIP3      H1            -21.8788705324      -17.4272548050        9.7234300322  W2        4636            0.0000000000
     12606      4202  TIP3      H2            -22.6610805324      -17.5629648050        8.4343900322  W2        4636            0.0000000000
     12607      4203  TIP3      OH2           -36.5313605324      -16.1630348050       13.4297700322  W2        4637            0.0000000000
     12608      4203  TIP3      H1            -36.0862005324      -16.9547848050       13.7317400322  W2        4637            0.0000000000
     12609      4203  TIP3      H2            -36.0650605324      -15.4465148050       13.8603300322  W2        4637            0.0000000000
     12610      4204  TIP3      OH2           -38.2273305324      -13.1637348050       14.4987900322  W2        4638            0.0000000000
     12611      4204  TIP3      H1            -37.7353505324      -13.3846848050       13.7079900322  W2        4638            0.0000000000
     12612      4204  TIP3      H2            -37.8652405324      -12.3233948050       14.7797400322  W2        4638            0.0000000000
     12613      4205  TIP3      OH2           -20.1947505324      -16.9105948050        5.4259600322  W2        4640            0.0000000000
     12614      4205  TIP3      H1            -19.7824905324      -17.6320248050        4.9507600322  W2        4640            0.0000000000
     12615      4205  TIP3      H2            -19.5131005324      -16.2411348050        5.4843900322  W2        4640            0.0000000000
     12616      4206  TIP3      OH2           -37.9136805324      -16.9058248050        8.5530300322  W2        4641            0.0000000000
     12617      4206  TIP3      H1            -38.8388405324      -16.6971648050        8.4235800322  W2        4641            0.0000000000
     12618      4206  TIP3      H2            -37.4596905324      -16.4217448050        7.8632600322  W2        4641            0.0000000000
     12619      4207  TIP3      OH2           -23.1429605324       -1.9216548050       10.4987700322  W2        4642            0.0000000000
     12620      4207  TIP3      H1            -22.4906705324       -2.2694448050        9.8906800322  W2        4642            0.0000000000
     12621      4207  TIP3      H2            -22.6325805324       -1.4333348050       11.1447400322  W2        4642            0.0000000000
     12622      4208  TIP3      OH2           -35.9874405324       -2.1387548050       14.2579700322  W2        4654            0.0000000000
     12623      4208  TIP3      H1            -36.0058405324       -2.5642448050       15.1152000322  W2        4654            0.0000000000
     12624      4208  TIP3      H2            -35.1826505324       -2.4572548050       13.8491900322  W2        4654            0.0000000000
     12625      4209  TIP3      OH2           -33.8461305324       -3.4288848050       12.9129600322  W2        4655            0.0000000000
     12626      4209  TIP3      H1            -34.0650605324       -4.3451448050       13.0825600322  W2        4655            0.0000000000
     12627      4209  TIP3      H2            -33.0219105324       -3.2888448050       13.3791000322  W2        4655            0.0000000000
     12628      4210  TIP3      OH2           -31.3088805324       -2.9589548050       13.7617600322  W2        4656            0.0000000000
     12629      4210  TIP3      H1            -31.0963105324       -3.8470548050       13.4748500322  W2        4656            0.0000000000
     12630      4210  TIP3      H2            -31.2443705324       -2.9931848050       14.7161600322  W2        4656            0.0000000000
     12631      4211  TIP3      OH2           -27.8005105324      -17.2948948050       12.9060900322  W2        4657            0.0000000000
     12632      4211  TIP3      H1            -28.4748305324      -17.9243348050       13.1616700322  W2        4657            0.0000000000
     12633      4211  TIP3      H2            -27.2365905324      -17.7790048050       12.3028800322  W2        4657            0.0000000000
     12634      4212  TIP3      OH2           -22.6577905324      -19.1874948050       13.0188000322  W2        4658            0.0000000000
     12635      4212  TIP3      H1            -22.0540305324      -18.6399548050       12.5169000322  W2        4658            0.0000000000
     12636      4212  TIP3      H2            -23.5275905324      -18.8684548050       12.7782100322  W2        4658            0.0000000000
     12637      4213  TIP3      OH2           -20.9307505324      -18.0486248050       11.3518900322  W2        4659            0.0000000000
     12638      4213  TIP3      H1            -20.3190005324      -18.5630548050       10.8252500322  W2        4659            0.0000000000
     12639      4213  TIP3      H2            -20.5484105324      -17.1714148050       11.3753300322  W2        4659            0.0000000000
     12640      4214  TIP3      OH2           -35.4737605324      -18.6608648050       10.7280800322  W2        4660            0.0000000000
     12641      4214  TIP3      H1            -36.2507805324      -18.8953748050       10.2206700322  W2        4660            0.0000000000
     12642      4214  TIP3      H2            -34.9434005324      -19.4576548050       10.7368800322  W2        4660            0.0000000000
     12643      4215  TIP3      OH2           -36.6374205324      -18.8630548050        6.5316900322  W2        4661            0.0000000000
     12644      4215  TIP3      H1            -36.1983505324      -18.2520048050        5.9400400322  W2        4661            0.0000000000
     12645      4215  TIP3      H2            -37.2711805324      -18.3246448050        7.0056900322  W2        4661            0.0000000000
     12646      4216  TIP3      OH2           -30.8945005324      -18.7341548050       10.5413900322  W2        4662            0.0000000000
     12647      4216  TIP3      H1            -30.0201605324      -18.3457248050       10.5118200322  W2        4662            0.0000000000
     12648      4216  TIP3      H2            -31.0304205324      -18.9493748050       11.4641100322  W2        4662            0.0000000000
     12649      4217  TIP3      OH2           -25.3376605324      -18.7041748050       12.1905600322  W2        4663            0.0000000000
     12650      4217  TIP3      H1            -25.2615005324      -18.6090148050       11.2411600322  W2        4663            0.0000000000
     12651      4217  TIP3      H2            -25.6127405324      -19.6118848050       12.3194700322  W2        4663            0.0000000000
     12652      4218  TIP3      OH2           -23.9844005324      -18.6783948050        7.8830600322  W2        4664            0.0000000000
     12653      4218  TIP3      H1            -24.6872905324      -18.0634748050        7.6732000322  W2        4664            0.0000000000
     12654      4218  TIP3      H2            -24.4292605324      -19.5157248050        8.0141500322  W2        4664            0.0000000000
     12655      4219  TIP3      OH2           -36.7364705324       -2.9148348050        7.4292000322  W2        4665            0.0000000000
     12656      4219  TIP3      H1            -37.4214805324       -2.9529448050        6.7617100322  W2        4665            0.0000000000
     12657      4219  TIP3      H2            -36.7327505324       -2.0020748050        7.7174100322  W2        4665            0.0000000000
     12658      4220  TIP3      OH2           -34.7765105324      -16.9469048050        4.9741000322  W2        4666            0.0000000000
     12659      4220  TIP3      H1            -34.2851705324      -17.5766648050        4.4466500322  W2        4666            0.0000000000
     12660      4220  TIP3      H2            -34.1528805324      -16.6509648050        5.6372200322  W2        4666            0.0000000000
     12661      4221  TIP3      OH2           -29.7505005324      -16.6537548050        7.4311500322  W2        4667            0.0000000000
     12662      4221  TIP3      H1            -29.5723705324      -17.3004348050        8.1140100322  W2        4667            0.0000000000
     12663      4221  TIP3      H2            -29.8038805324      -15.8199848050        7.8982600322  W2        4667            0.0000000000
     12664      4222  TIP3      OH2           -27.8721205324       -1.7053448050        5.8268200322  W2        4668            0.0000000000
     12665      4222  TIP3      H1            -27.0061005324       -1.3386048050        5.6486400322  W2        4668            0.0000000000
     12666      4222  TIP3      H2            -28.1188405324       -2.1445448050        5.0129000322  W2        4668            0.0000000000
     12667      4223  TIP3      OH2           -21.1631605324       -2.1423148050        8.5059300322  W2        4669            0.0000000000
     12668      4223  TIP3      H1            -21.3574505324       -2.8901048050        7.9408900322  W2        4669            0.0000000000
     12669      4223  TIP3      H2            -21.2021505324       -1.3843048050        7.9227200322  W2        4669            0.0000000000
     12670      4224  TIP3      OH2           -34.9183505324       -1.9947548050        4.4544100322  W2        4672            0.0000000000
     12671      4224  TIP3      H1            -35.1858905324       -1.7084648050        5.3277200322  W2        4672            0.0000000000
     12672      4224  TIP3      H2            -34.1470905324       -2.5408348050        4.6066600322  W2        4672            0.0000000000
     12673      4225  TIP3      OH2            -7.5395005324       -9.5046348050       10.6868300322  W2        4675            0.0000000000
     12674      4225  TIP3      H1             -7.4503905324       -8.5608148050       10.5545400322  W2        4675            0.0000000000
     12675      4225  TIP3      H2             -8.1777405324       -9.7799948050       10.0287700322  W2        4675            0.0000000000
     12676      4226  TIP3      OH2            -8.6063705324      -10.2495648050       14.1056500322  W2        4676            0.0000000000
     12677      4226  TIP3      H1             -8.6446205324      -10.8959348050       14.8106100322  W2        4676            0.0000000000
     12678      4226  TIP3      H2             -8.9287205324      -10.7161248050       13.3345200322  W2        4676            0.0000000000
     12679      4227  TIP3      OH2            -4.9003505324       -7.3105248050       12.4071600322  W2        4678            0.0000000000
     12680      4227  TIP3      H1             -5.3410805324       -8.0309248050       12.8577200322  W2        4678            0.0000000000
     12681      4227  TIP3      H2             -4.9133805324       -6.5898048050       13.0369300322  W2        4678            0.0000000000
     12682      4228  TIP3      OH2           -15.3145605324       -6.1854648050       14.2335500322  W2        4679            0.0000000000
     12683      4228  TIP3      H1            -15.6840405324       -6.9874148050       13.8639800322  W2        4679            0.0000000000
     12684      4228  TIP3      H2            -14.3734505324       -6.3539748050       14.2798900322  W2        4679            0.0000000000
     12685      4229  TIP3      OH2           -18.7045105324      -12.5252048050        9.6264300322  W2        4680            0.0000000000
     12686      4229  TIP3      H1            -19.1521705324      -11.6793348050        9.6080800322  W2        4680            0.0000000000
     12687      4229  TIP3      H2            -19.2653905324      -13.1047848050        9.1109400322  W2        4680            0.0000000000
     12688      4230  TIP3      OH2           -17.9939005324      -10.3632448050       11.7522300322  W2        4681            0.0000000000
     12689      4230  TIP3      H1            -17.7805505324      -11.1330848050       12.2795300322  W2        4681            0.0000000000
     12690      4230  TIP3      H2            -17.2561405324      -10.2735748050       11.1489900322  W2        4681            0.0000000000
     12691      4231  TIP3      OH2            -7.7888005324       -2.2063548050       12.6192000322  W2        4682            0.0000000000
     12692      4231  TIP3      H1             -7.1691605324       -2.8828848050       12.3461200322  W2        4682            0.0000000000
     12693      4231  TIP3      H2             -7.9970605324       -2.4242748050       13.5276900322  W2        4682            0.0000000000
     12694      4232  TIP3      OH2           -10.2169305324       -7.8174248050       14.5117500322  W2        4683            0.0000000000
     12695      4232  TIP3      H1             -9.9131405324       -8.5032848050       13.9171600322  W2        4683            0.0000000000
     12696      4232  TIP3      H2             -9.4955305324       -7.6985548050       15.1295500322  W2        4683            0.0000000000
     12697      4233  TIP3      OH2            -7.0762305324      -13.4231848050       14.8392300322  W2        4685            0.0000000000
     12698      4233  TIP3      H1             -6.9336405324      -14.3694848050       14.8593900322  W2        4685            0.0000000000
     12699      4233  TIP3      H2             -7.1823305324      -13.2162048050       13.9107200322  W2        4685            0.0000000000
     12700      4234  TIP3      OH2           -13.9214005324      -15.3215448050       12.1117100322  W2        4686            0.0000000000
     12701      4234  TIP3      H1            -13.8782905324      -14.4616948050       11.6933400322  W2        4686            0.0000000000
     12702      4234  TIP3      H2            -14.3789905324      -15.8740748050       11.4780300322  W2        4686            0.0000000000
     12703      4235  TIP3      OH2            -6.1991305324      -15.1909848050       10.5125400322  W2        4687            0.0000000000
     12704      4235  TIP3      H1             -5.5527005324      -15.5196648050       11.1373000322  W2        4687            0.0000000000
     12705      4235  TIP3      H2             -5.6891905324      -14.6730848050        9.8896800322  W2        4687            0.0000000000
     12706      4236  TIP3      OH2           -17.3012505324      -12.9249648050       12.8738500322  W2        4688            0.0000000000
     12707      4236  TIP3      H1            -16.6475905324      -13.4747948050       13.3058600322  W2        4688            0.0000000000
     12708      4236  TIP3      H2            -17.2773205324      -13.1990648050       11.9570500322  W2        4688            0.0000000000
     12709      4237  TIP3      OH2           -12.1448005324      -11.3748348050       12.0890000322  W2        4689            0.0000000000
     12710      4237  TIP3      H1            -11.5287005324      -11.9012948050       12.5984000322  W2        4689            0.0000000000
     12711      4237  TIP3      H2            -12.7309205324      -12.0149648050       11.6853600322  W2        4689            0.0000000000
     12712      4238  TIP3      OH2            -7.7422305324       -6.9035948050        9.7297000322  W2        4692            0.0000000000
     12713      4238  TIP3      H1             -8.0377205324       -7.2263648050        8.8783900322  W2        4692            0.0000000000
     12714      4238  TIP3      H2             -8.0664505324       -6.0039248050        9.7709600322  W2        4692            0.0000000000
     12715      4239  TIP3      OH2            -4.4352905324      -15.9000548050       12.4931300322  W2        4694            0.0000000000
     12716      4239  TIP3      H1             -4.6504905324      -16.6657148050       13.0257300322  W2        4694            0.0000000000
     12717      4239  TIP3      H2             -3.7795505324      -15.4275948050       13.0059800322  W2        4694            0.0000000000
     12718      4240  TIP3      OH2           -15.5174805324      -14.5115248050       14.1380100322  W2        4695            0.0000000000
     12719      4240  TIP3      H1            -14.9038505324      -13.8787648050       14.5112500322  W2        4695            0.0000000000
     12720      4240  TIP3      H2            -15.0054105324      -14.9840248050       13.4817000322  W2        4695            0.0000000000
     12721      4241  TIP3      OH2           -18.0135505324       -7.0930448050        8.0422400322  W2        4697            0.0000000000
     12722      4241  TIP3      H1            -18.2854605324       -6.8639448050        7.1535300322  W2        4697            0.0000000000
     12723      4241  TIP3      H2            -17.9679805324       -6.2551648050        8.5027700322  W2        4697            0.0000000000
     12724      4242  TIP3      OH2            -4.3885805324       -5.4714548050       14.7550900322  W2        4698            0.0000000000
     12725      4242  TIP3      H1             -5.3302105324       -5.4130648050       14.9167800322  W2        4698            0.0000000000
     12726      4242  TIP3      H2             -4.1119705324       -4.5654048050       14.6180600322  W2        4698            0.0000000000
     12727      4243  TIP3      OH2           -11.0847405324      -19.0981948050       13.6382800322  W2        4700            0.0000000000
     12728      4243  TIP3      H1            -11.2023205324      -20.0465948050       13.5841100322  W2        4700            0.0000000000
     12729      4243  TIP3      H2            -11.9397305324      -18.7655848050       13.9113900322  W2        4700            0.0000000000
     12730      4244  TIP3      OH2            -6.1364605324       -3.6901048050       11.3802500322  W2        4701            0.0000000000
     12731      4244  TIP3      H1             -5.7112305324       -4.3973148050       10.8952100322  W2        4701            0.0000000000
     12732      4244  TIP3      H2             -5.8194605324       -2.8888348050       10.9634700322  W2        4701            0.0000000000
     12733      4245  TIP3      OH2            -4.9768105324       -5.7892548050        9.8889100322  W2        4702            0.0000000000
     12734      4245  TIP3      H1             -5.2343305324       -6.4792448050        9.2775000322  W2        4702            0.0000000000
     12735      4245  TIP3      H2             -4.9057305324       -6.2321348050       10.7345000322  W2        4702            0.0000000000
     12736      4246  TIP3      OH2            -8.8182505324      -10.2606348050        8.1388600322  W2        4704            0.0000000000
     12737      4246  TIP3      H1             -9.5297005324       -9.7256648050        7.7869100322  W2        4704            0.0000000000
     12738      4246  TIP3      H2             -8.1272905324      -10.2054248050        7.4787500322  W2        4704            0.0000000000
     12739      4247  TIP3      OH2            -8.7643305324      -11.8032048050        5.1773600322  W2        4705            0.0000000000
     12740      4247  TIP3      H1             -8.0633405324      -11.7805148050        5.8287600322  W2        4705            0.0000000000
     12741      4247  TIP3      H2             -8.4620405324      -12.4312348050        4.5212900322  W2        4705            0.0000000000
     12742      4248  TIP3      OH2            -5.4124805324      -10.0513048050        9.0904500322  W2        4707            0.0000000000
     12743      4248  TIP3      H1             -6.1443805324       -9.8229348050        9.6635100322  W2        4707            0.0000000000
     12744      4248  TIP3      H2             -4.9652605324      -10.7650348050        9.5452000322  W2        4707            0.0000000000
     12745      4249  TIP3      OH2           -13.7671105324       -9.4206848050       10.9729500322  W2        4709            0.0000000000
     12746      4249  TIP3      H1            -14.0975905324       -9.7913448050       10.1546500322  W2        4709            0.0000000000
     12747      4249  TIP3      H2            -13.1787005324      -10.0912848050       11.3197800322  W2        4709            0.0000000000
     12748      4250  TIP3      OH2           -12.4003605324       -5.9926248050       13.6541700322  W2        4710            0.0000000000
     12749      4250  TIP3      H1            -12.4952305324       -6.5713148050       12.8976300322  W2        4710            0.0000000000
     12750      4250  TIP3      H2            -11.6710005324       -6.3640548050       14.1504500322  W2        4710            0.0000000000
     12751      4251  TIP3      OH2           -13.4005605324      -10.6521248050       14.6064500322  W2        4711            0.0000000000
     12752      4251  TIP3      H1            -12.8353105324      -10.5307048050       13.8435700322  W2        4711            0.0000000000
     12753      4251  TIP3      H2            -13.0816705324      -10.0146248050       15.2453000322  W2        4711            0.0000000000
     12754      4252  TIP3      OH2            -6.5415305324      -10.8890148050        6.7755700322  W2        4714            0.0000000000
     12755      4252  TIP3      H1             -5.9619805324      -10.7389848050        7.5224600322  W2        4714            0.0000000000
     12756      4252  TIP3      H2             -6.1275305324      -10.4182748050        6.0522100322  W2        4714            0.0000000000
     12757      4253  TIP3      OH2            -8.8150405324       -4.1521648050       10.2108800322  W2        4716            0.0000000000
     12758      4253  TIP3      H1             -8.3412805324       -3.8565348050       10.9883000322  W2        4716            0.0000000000
     12759      4253  TIP3      H2             -9.3781105324       -3.4140048050        9.9778400322  W2        4716            0.0000000000
     12760      4254  TIP3      OH2            -2.8426905324      -19.1389748050        6.5885400322  W2        4718            0.0000000000
     12761      4254  TIP3      H1             -3.7426205324      -19.0000748050        6.8836000322  W2        4718            0.0000000000
     12762      4254  TIP3      H2             -2.5908505324      -18.3075148050        6.1867100322  W2        4718            0.0000000000
     12763      4255  TIP3      OH2           -14.7768405324      -10.3512548050        8.5622300322  W2        4719            0.0000000000
     12764      4255  TIP3      H1            -15.0687105324       -9.5830848050        8.0713600322  W2        4719            0.0000000000
     12765      4255  TIP3      H2            -15.4513205324      -11.0106348050        8.3993700322  W2        4719            0.0000000000
     12766      4256  TIP3      OH2            -1.6535505324       -4.7727348050        4.9649300322  W2        4720            0.0000000000
     12767      4256  TIP3      H1             -1.5802005324       -3.8337148050        5.1354600322  W2        4720            0.0000000000
     12768      4256  TIP3      H2             -0.7480405324       -5.0778748050        4.9086600322  W2        4720            0.0000000000
     12769      4257  TIP3      OH2           -18.9335605324       -5.2079548050       14.2612300322  W2        4722            0.0000000000
     12770      4257  TIP3      H1            -17.9875005324       -5.3522548050       14.2421800322  W2        4722            0.0000000000
     12771      4257  TIP3      H2            -19.0459305324       -4.4236748050       14.7983500322  W2        4722            0.0000000000
     12772      4258  TIP3      OH2            -9.3427305324       -1.1956948050        8.6258000322  W2        4725            0.0000000000
     12773      4258  TIP3      H1             -9.4181305324       -1.3169748050        7.6793200322  W2        4725            0.0000000000
     12774      4258  TIP3      H2             -9.3098605324       -0.2464248050        8.7442600322  W2        4725            0.0000000000
     12775      4259  TIP3      OH2           -15.6893505324       -2.4069948050       10.4067000322  W2        4726            0.0000000000
     12776      4259  TIP3      H1            -15.5373105324       -2.7549548050       11.2853500322  W2        4726            0.0000000000
     12777      4259  TIP3      H2            -16.5403105324       -2.7632648050       10.1514200322  W2        4726            0.0000000000
     12778      4260  TIP3      OH2            -6.2411305324       -2.0416748050        5.6280400322  W2        4727            0.0000000000
     12779      4260  TIP3      H1             -5.8662905324       -2.7860648050        5.1573000322  W2        4727            0.0000000000
     12780      4260  TIP3      H2             -6.2367605324       -2.3116148050        6.5463700322  W2        4727            0.0000000000
     12781      4261  TIP3      OH2            -6.5723205324       -2.1159648050        8.3772600322  W2        4728            0.0000000000
     12782      4261  TIP3      H1             -7.5073405324       -2.0157748050        8.5559600322  W2        4728            0.0000000000
     12783      4261  TIP3      H2             -6.2921305324       -2.8253648050        8.9555800322  W2        4728            0.0000000000
     12784      4262  TIP3      OH2           -13.8159805324      -18.1947448050       14.4159100322  W2        4731            0.0000000000
     12785      4262  TIP3      H1            -14.6776105324      -18.2819248050       14.0082000322  W2        4731            0.0000000000
     12786      4262  TIP3      H2            -13.8384105324      -17.3387348050       14.8436700322  W2        4731            0.0000000000
     12787      4263  TIP3      OH2            -5.0642205324       -9.8561848050        4.4053600322  W2        4734            0.0000000000
     12788      4263  TIP3      H1             -5.0221405324      -10.0787948050        3.4753600322  W2        4734            0.0000000000
     12789      4263  TIP3      H2             -4.2150105324       -9.4574748050        4.5953500322  W2        4734            0.0000000000
     12790      4264  TIP3      OH2            -9.4914705324      -15.9803648050        5.0756900322  W2        4735            0.0000000000
     12791      4264  TIP3      H1             -9.7449905324      -15.9612048050        5.9985000322  W2        4735            0.0000000000
     12792      4264  TIP3      H2             -9.7482605324      -16.8518248050        4.7743100322  W2        4735            0.0000000000
     12793      4265  TIP3      OH2           -13.7280605324      -13.0082848050       10.4229300322  W2        4737            0.0000000000
     12794      4265  TIP3      H1            -14.6207705324      -13.3486748050       10.3643100322  W2        4737            0.0000000000
     12795      4265  TIP3      H2            -13.2774005324      -13.3851948050        9.6672500322  W2        4737            0.0000000000
     12796      4266  TIP3      OH2            -8.1925105324      -12.5922548050        9.2400100322  W2        4738            0.0000000000
     12797      4266  TIP3      H1             -8.6014805324      -11.7773948050        8.9484900322  W2        4738            0.0000000000
     12798      4266  TIP3      H2             -7.4718905324      -12.7322448050        8.6257200322  W2        4738            0.0000000000
     12799      4267  TIP3      OH2            -7.1877405324      -13.1462148050       12.0539800322  W2        4740            0.0000000000
     12800      4267  TIP3      H1             -7.3832905324      -12.5405348050       11.3390400322  W2        4740            0.0000000000
     12801      4267  TIP3      H2             -7.0064805324      -13.9796948050       11.6196100322  W2        4740            0.0000000000
     12802      4268  TIP3      OH2           -12.6091805324      -15.5347148050        4.1767300322  W2        4742            0.0000000000
     12803      4268  TIP3      H1            -13.0401105324      -15.9797048050        4.9064700322  W2        4742            0.0000000000
     12804      4268  TIP3      H2            -13.3273105324      -15.1630848050        3.6644800322  W2        4742            0.0000000000
     12805      4269  TIP3      OH2           -19.3668405324      -15.7927648050       11.2286000322  W2        4743            0.0000000000
     12806      4269  TIP3      H1            -18.7360705324      -15.8215548050       11.9479900322  W2        4743            0.0000000000
     12807      4269  TIP3      H2            -18.9174105324      -16.2178948050       10.4981900322  W2        4743            0.0000000000
     12808      4270  TIP3      OH2           -18.0926305324      -15.0465648050        6.6526400322  W2        4744            0.0000000000
     12809      4270  TIP3      H1            -17.6184605324      -14.4555748050        6.0677300322  W2        4744            0.0000000000
     12810      4270  TIP3      H2            -18.8099905324      -14.5162748050        6.9996500322  W2        4744            0.0000000000
     12811      4271  TIP3      OH2           -11.1465305324      -15.5805348050       11.5093400322  W2        4746            0.0000000000
     12812      4271  TIP3      H1            -12.0574205324      -15.5238548050       11.7979400322  W2        4746            0.0000000000
     12813      4271  TIP3      H2            -10.6412405324      -15.6409848050       12.3200600322  W2        4746            0.0000000000
     12814      4272  TIP3      OH2           -16.3181905324      -13.9519048050       10.3361000322  W2        4747            0.0000000000
     12815      4272  TIP3      H1            -17.2073905324      -13.8523548050        9.9960600322  W2        4747            0.0000000000
     12816      4272  TIP3      H2            -16.0217005324      -14.7936048050        9.9898900322  W2        4747            0.0000000000
     12817      4273  TIP3      OH2           -12.6650105324      -13.9516448050        7.9925600322  W2        4748            0.0000000000
     12818      4273  TIP3      H1            -11.7334605324      -13.8226448050        8.1708700322  W2        4748            0.0000000000
     12819      4273  TIP3      H2            -12.8799805324      -13.2822148050        7.3430300322  W2        4748            0.0000000000
     12820      4274  TIP3      OH2            -6.7413405324      -16.3459048050       14.7735200322  W2        4749            0.0000000000
     12821      4274  TIP3      H1             -7.4181805324      -16.2145948050       15.4374900322  W2        4749            0.0000000000
     12822      4274  TIP3      H2             -7.2268505324      -16.5009548050       13.9632900322  W2        4749            0.0000000000
     12823      4275  TIP3      OH2           -13.9909905324      -12.7574248050        5.5591700322  W2        4750            0.0000000000
     12824      4275  TIP3      H1            -14.5334805324      -13.1370448050        4.8679300322  W2        4750            0.0000000000
     12825      4275  TIP3      H2            -13.1575005324      -12.5629548050        5.1305800322  W2        4750            0.0000000000
     12826      4276  TIP3      OH2            -9.8265605324      -12.7932348050       13.3963000322  W2        4753            0.0000000000
     12827      4276  TIP3      H1             -9.2622205324      -13.3395748050       12.8492600322  W2        4753            0.0000000000
     12828      4276  TIP3      H2             -9.9742205324      -13.3150448050       14.1850600322  W2        4753            0.0000000000
     12829      4277  TIP3      OH2           -14.8245905324      -16.6566248050        9.8147800322  W2        4754            0.0000000000
     12830      4277  TIP3      H1            -15.1416405324      -17.5590948050        9.7793200322  W2        4754            0.0000000000
     12831      4277  TIP3      H2            -14.0431805324      -16.6548848050        9.2619400322  W2        4754            0.0000000000
     12832      4278  TIP3      OH2           -10.6557105324       -8.1918548050        7.4949800322  W2        4756            0.0000000000
     12833      4278  TIP3      H1            -11.4006105324       -8.6993248050        7.1727700322  W2        4756            0.0000000000
     12834      4278  TIP3      H2            -10.7899905324       -8.1430548050        8.4414600322  W2        4756            0.0000000000
     12835      4279  TIP3      OH2            -6.7580305324      -15.3778648050        5.6942400322  W2        4758            0.0000000000
     12836      4279  TIP3      H1             -7.6966105324      -15.2663048050        5.5431200322  W2        4758            0.0000000000
     12837      4279  TIP3      H2             -6.4608205324      -14.5211748050        6.0008100322  W2        4758            0.0000000000
     12838      4280  TIP3      OH2            -6.0396805324      -13.5105948050        7.3549800322  W2        4760            0.0000000000
     12839      4280  TIP3      H1             -5.1477805324      -13.6480948050        7.6741000322  W2        4760            0.0000000000
     12840      4280  TIP3      H2             -5.9833205324      -12.7199848050        6.8183300322  W2        4760            0.0000000000
     12841      4281  TIP3      OH2           -15.5308805324       -8.8968548050       13.2647700322  W2        4761            0.0000000000
     12842      4281  TIP3      H1            -14.7861605324       -8.8992848050       12.6634200322  W2        4761            0.0000000000
     12843      4281  TIP3      H2            -15.4532205324       -9.7204748050       13.7462800322  W2        4761            0.0000000000
     12844      4282  TIP3      OH2            -8.5303005324       -6.7334248050        6.5204400322  W2        4762            0.0000000000
     12845      4282  TIP3      H1             -8.8254605324       -5.9066348050        6.9019200322  W2        4762            0.0000000000
     12846      4282  TIP3      H2             -9.2333005324       -7.3527348050        6.7165800322  W2        4762            0.0000000000
     12847      4283  TIP3      OH2            -1.1548105324      -13.3011848050        7.0496500322  W2        4766            0.0000000000
     12848      4283  TIP3      H1             -1.7091805324      -13.6973848050        6.3774000322  W2        4766            0.0000000000
     12849      4283  TIP3      H2             -1.0544505324      -12.3906648050        6.7719800322  W2        4766            0.0000000000
     12850      4284  TIP3      OH2            -2.8596405324       -4.5151448050        7.5148600322  W2        4768            0.0000000000
     12851      4284  TIP3      H1             -3.2325305324       -5.3407648050        7.8239200322  W2        4768            0.0000000000
     12852      4284  TIP3      H2             -2.5822905324       -4.6982048050        6.6172000322  W2        4768            0.0000000000
     12853      4285  TIP3      OH2            -5.6992505324       -9.7071948050       14.5360500322  W2        4769            0.0000000000
     12854      4285  TIP3      H1             -6.6275605324       -9.9390048050       14.5089800322  W2        4769            0.0000000000
     12855      4285  TIP3      H2             -5.2481405324      -10.4842148050       14.2059300322  W2        4769            0.0000000000
     12856      4286  TIP3      OH2           -13.1559405324       -5.3790348050       10.6689200322  W2        4770            0.0000000000
     12857      4286  TIP3      H1            -12.6287205324       -4.6055948050       10.4688000322  W2        4770            0.0000000000
     12858      4286  TIP3      H2            -14.0360905324       -5.1541148050       10.3673200322  W2        4770            0.0000000000
     12859      4287  TIP3      OH2           -17.4011705324      -10.5166248050        5.2561600322  W2        4771            0.0000000000
     12860      4287  TIP3      H1            -16.7851805324       -9.8899048050        5.6356400322  W2        4771            0.0000000000
     12861      4287  TIP3      H2            -18.2629105324      -10.2006448050        5.5278100322  W2        4771            0.0000000000
     12862      4288  TIP3      OH2           -11.7287105324       -7.7160448050       10.2453500322  W2        4772            0.0000000000
     12863      4288  TIP3      H1            -11.9697105324       -6.7906048050       10.2868800322  W2        4772            0.0000000000
     12864      4288  TIP3      H2            -12.4693505324       -8.1749148050       10.6417400322  W2        4772            0.0000000000
     12865      4289  TIP3      OH2           -13.0456305324       -2.6942848050        9.7905700322  W2        4774            0.0000000000
     12866      4289  TIP3      H1            -13.9955805324       -2.5885448050        9.8419000322  W2        4774            0.0000000000
     12867      4289  TIP3      H2            -12.6938205324       -1.8735448050       10.1353200322  W2        4774            0.0000000000
     12868      4290  TIP3      OH2            -5.4670805324       -6.5385648050        5.3349200322  W2        4776            0.0000000000
     12869      4290  TIP3      H1             -5.1137705324       -6.9185848050        6.1392700322  W2        4776            0.0000000000
     12870      4290  TIP3      H2             -6.4157305324       -6.6320848050        5.4218500322  W2        4776            0.0000000000
     12871      4291  TIP3      OH2            -0.9636405324       -2.0593148050        5.5359400322  W2        4778            0.0000000000
     12872      4291  TIP3      H1             -0.2198505324       -1.4732648050        5.3961000322  W2        4778            0.0000000000
     12873      4291  TIP3      H2             -1.6578305324       -1.4907348050        5.8691800322  W2        4778            0.0000000000
     12874      4292  TIP3      OH2            -4.6011505324       -7.8663648050        7.5617100322  W2        4780            0.0000000000
     12875      4292  TIP3      H1             -4.8783905324       -8.5944348050        8.1178200322  W2        4780            0.0000000000
     12876      4292  TIP3      H2             -3.6738505324       -7.7471648050        7.7669700322  W2        4780            0.0000000000
     12877      4293  TIP3      OH2           -11.3763005324       -5.4269548050        3.7819200322  W2        4782            0.0000000000
     12878      4293  TIP3      H1            -11.1373205324       -6.1751448050        3.2348100322  W2        4782            0.0000000000
     12879      4293  TIP3      H2            -11.6451705324       -5.8147848050        4.6147000322  W2        4782            0.0000000000
     12880      4294  TIP3      OH2           -12.4392405324       -5.8565748050        6.2381800322  W2        4783            0.0000000000
     12881      4294  TIP3      H1            -12.2924405324       -6.3765948050        7.0282700322  W2        4783            0.0000000000
     12882      4294  TIP3      H2            -12.4420705324       -4.9498148050        6.5447700322  W2        4783            0.0000000000
     12883      4295  TIP3      OH2           -15.9861305324       -8.6042448050        6.7487200322  W2        4784            0.0000000000
     12884      4295  TIP3      H1            -16.6722005324       -8.2519948050        7.3156900322  W2        4784            0.0000000000
     12885      4295  TIP3      H2            -15.4633405324       -7.8412848050        6.5021500322  W2        4784            0.0000000000
     12886      4296  TIP3      OH2            -7.3701305324      -16.2896948050        8.1248500322  W2        4786            0.0000000000
     12887      4296  TIP3      H1             -7.1503005324      -15.8181548050        7.3213900322  W2        4786            0.0000000000
     12888      4296  TIP3      H2             -6.8117305324      -15.8954348050        8.7949100322  W2        4786            0.0000000000
     12889      4297  TIP3      OH2            -9.7015205324       -4.1592148050        6.9876000322  W2        4787            0.0000000000
     12890      4297  TIP3      H1            -10.5179105324       -3.6622448050        7.0400300322  W2        4787            0.0000000000
     12891      4297  TIP3      H2             -9.1718905324       -3.6838648050        6.3474800322  W2        4787            0.0000000000
     12892      4298  TIP3      OH2           -10.1701405324      -14.5618148050        8.9596900322  W2        4788            0.0000000000
     12893      4298  TIP3      H1             -9.3578805324      -14.0574948050        9.0058600322  W2        4788            0.0000000000
     12894      4298  TIP3      H2            -10.4148405324      -14.7068448050        9.8736500322  W2        4788            0.0000000000
     12895      4299  TIP3      OH2            -9.2864705324      -17.4805148050        9.8978000322  W2        4790            0.0000000000
     12896      4299  TIP3      H1             -9.6331205324      -16.8634548050       10.5422300322  W2        4790            0.0000000000
     12897      4299  TIP3      H2             -8.6277805324      -16.9799448050        9.4163500322  W2        4790            0.0000000000
     12898      4300  TIP3      OH2           -12.3632105324       -3.1154948050        6.9692900322  W2        4791            0.0000000000
     12899      4300  TIP3      H1            -12.2023405324       -2.3157448050        6.4685500322  W2        4791            0.0000000000
     12900      4300  TIP3      H2            -12.5604305324       -2.8088948050        7.8543500322  W2        4791            0.0000000000
     12901      4301  TIP3      OH2           -13.6287705324      -16.4175748050        6.5850500322  W2        4792            0.0000000000
     12902      4301  TIP3      H1            -13.7122905324      -15.5292648050        6.9316900322  W2        4792            0.0000000000
     12903      4301  TIP3      H2            -12.7387405324      -16.6829048050        6.8167300322  W2        4792            0.0000000000
     12904      4302  TIP3      OH2            -4.8278205324      -11.9184148050       13.0750500322  W2        4794            0.0000000000
     12905      4302  TIP3      H1             -5.6253805324      -12.3333948050       12.7465500322  W2        4794            0.0000000000
     12906      4302  TIP3      H2             -4.3827105324      -12.6090448050       13.5661000322  W2        4794            0.0000000000
     12907      4303  TIP3      OH2           -15.3702405324       -5.9903548050        5.6455000322  W2        4795            0.0000000000
     12908      4303  TIP3      H1            -14.7780905324       -5.2908748050        5.9217400322  W2        4795            0.0000000000
     12909      4303  TIP3      H2            -14.9109405324       -6.4234048050        4.9259600322  W2        4795            0.0000000000
     12910      4304  TIP3      OH2           -17.0543205324      -13.3260548050        4.7614400322  W2        4796            0.0000000000
     12911      4304  TIP3      H1            -17.0990605324      -12.3867448050        4.9401400322  W2        4796            0.0000000000
     12912      4304  TIP3      H2            -17.9420005324      -13.5615648050        4.4916500322  W2        4796            0.0000000000
     12913      4305  TIP3      OH2            -3.7413605324       -2.6621648050       14.6974000322  W2        4797            0.0000000000
     12914      4305  TIP3      H1             -3.8969305324       -1.9837248050       14.0403300322  W2        4797            0.0000000000
     12915      4305  TIP3      H2             -2.8087205324       -2.5902348050       14.9004600322  W2        4797            0.0000000000
     12916      4306  TIP3      OH2           -16.2461205324      -18.5443948050       13.4345400322  W2        4798            0.0000000000
     12917      4306  TIP3      H1            -16.4751405324      -18.4851448050       12.5070400322  W2        4798            0.0000000000
     12918      4306  TIP3      H2            -16.6887805324      -19.3358448050       13.7409500322  W2        4798            0.0000000000
     12919      4307  TIP3      OH2           -17.3157905324       -4.6036848050        9.5951200322  W2        4799            0.0000000000
     12920      4307  TIP3      H1            -18.1479305324       -4.1314148050        9.6222600322  W2        4799            0.0000000000
     12921      4307  TIP3      H2            -16.7699605324       -4.0939248050        8.9964300322  W2        4799            0.0000000000
     12922      4308  TIP3      OH2            -9.3381205324       -3.5638148050        3.9205200322  W2        4802            0.0000000000
     12923      4308  TIP3      H1             -9.9820205324       -4.1949548050        4.2418900322  W2        4802            0.0000000000
     12924      4308  TIP3      H2             -8.5762905324       -4.0950148050        3.6888700322  W2        4802            0.0000000000
     12925      4309  TIP3      OH2            -4.7338305324       -3.7468248050        4.1543200322  W2        4804            0.0000000000
     12926      4309  TIP3      H1             -4.4507905324       -4.5413048050        4.6070100322  W2        4804            0.0000000000
     12927      4309  TIP3      H2             -3.9940405324       -3.5137248050        3.5934300322  W2        4804            0.0000000000
     12928      4310  TIP3      OH2           -13.7791005324       -7.8373348050        4.0118100322  W2        4806            0.0000000000
     12929      4310  TIP3      H1            -13.7146905324       -8.6313748050        4.5424500322  W2        4806            0.0000000000
     12930      4310  TIP3      H2            -13.1261805324       -7.9560548050        3.3220100322  W2        4806            0.0000000000
     12931      4311  TIP3      OH2            -8.4267605324       -6.7901648050        3.7476100322  W2        4808            0.0000000000
     12932      4311  TIP3      H1             -8.6953505324       -6.6099548050        4.6485000322  W2        4808            0.0000000000
     12933      4311  TIP3      H2             -8.6332005324       -7.7155448050        3.6161900322  W2        4808            0.0000000000
     12934      4312  TIP3      OH2           -12.6297205324       -9.8647148050        6.3176100322  W2        4811            0.0000000000
     12935      4312  TIP3      H1            -13.0895205324      -10.3488848050        7.0034600322  W2        4811            0.0000000000
     12936      4312  TIP3      H2            -12.3748505324      -10.5331748050        5.6816600322  W2        4811            0.0000000000
     12937      4313  TIP3      OH2           -11.5586805324      -11.6215348050        4.5799300322  W2        4813            0.0000000000
     12938      4313  TIP3      H1            -11.7391805324      -11.7764148050        3.6527600322  W2        4813            0.0000000000
     12939      4313  TIP3      H2            -10.6086305324      -11.5136648050        4.6247200322  W2        4813            0.0000000000
     12940      4314  TIP3      OH2            -2.1688505324       -9.2671148050        4.0257400322  W2        4815            0.0000000000
     12941      4314  TIP3      H1             -2.4423705324       -9.6915648050        3.2125700322  W2        4815            0.0000000000
     12942      4314  TIP3      H2             -2.1294405324       -8.3356648050        3.8087800322  W2        4815            0.0000000000
     12943      4315  TIP3      OH2           -11.6615105324       -0.9311648050        5.5812900322  W2        4829            0.0000000000
     12944      4315  TIP3      H1            -10.7284405324       -0.7732948050        5.7251300322  W2        4829            0.0000000000
     12945      4315  TIP3      H2            -11.9256305324       -0.2558648050        4.9564400322  W2        4829            0.0000000000
     12946      4316  TIP3      OH2           -18.0930205324       -6.2947848050        5.0641000322  W2        4830            0.0000000000
     12947      4316  TIP3      H1            -17.1791005324       -6.2158948050        5.3374900322  W2        4830            0.0000000000
     12948      4316  TIP3      H2            -18.0857105324       -6.9818248050        4.3976600322  W2        4830            0.0000000000
     12949      4317  TIP3      OH2           -19.4439605324       -0.9019348050       10.1414900322  W2        4831            0.0000000000
     12950      4317  TIP3      H1            -20.0912505324       -1.3637648050        9.6086100322  W2        4831            0.0000000000
     12951      4317  TIP3      H2            -19.0895005324       -1.5736048050       10.7241100322  W2        4831            0.0000000000
     12952      4318  TIP3      OH2           -18.5740405324       -2.8212348050       11.9461100322  W2        4832            0.0000000000
     12953      4318  TIP3      H1            -18.9083605324       -3.7015048050       12.1181300322  W2        4832            0.0000000000
     12954      4318  TIP3      H2            -18.3518005324       -2.4757348050       12.8106700322  W2        4832            0.0000000000
     12955      4319  TIP3      OH2            -1.7105705324       -8.3983048050        8.0007800322  W2        4836            0.0000000000
     12956      4319  TIP3      H1             -0.8604305324       -7.9772148050        8.1279400322  W2        4836            0.0000000000
     12957      4319  TIP3      H2             -1.7050605324       -9.1382948050        8.6079200322  W2        4836            0.0000000000
     12958      4320  TIP3      OH2            -1.3160105324      -10.3445648050        9.8243500322  W2        4837            0.0000000000
     12959      4320  TIP3      H1             -2.0425505324      -10.8243048050       10.2221100322  W2        4837            0.0000000000
     12960      4320  TIP3      H2             -0.7346805324      -10.1390948050       10.5565100322  W2        4837            0.0000000000
     12961      4321  TIP3      OH2            -1.5568905324       -7.5598148050       14.7721100322  W2        4838            0.0000000000
     12962      4321  TIP3      H1             -0.7234705324       -7.9378148050       14.4914700322  W2        4838            0.0000000000
     12963      4321  TIP3      H2             -1.4448605324       -6.6166948050       14.6530200322  W2        4838            0.0000000000
     12964      4322  TIP3      OH2            -1.0477005324      -10.4437148050        6.2154800322  W2        4840            0.0000000000
     12965      4322  TIP3      H1             -1.5695905324      -10.0873048050        5.4965700322  W2        4840            0.0000000000
     12966      4322  TIP3      H2             -1.0807805324       -9.7689348050        6.8935700322  W2        4840            0.0000000000
     12967      4323  TIP3      OH2            -2.6988005324      -13.2041548050        4.7661900322  W2        4841            0.0000000000
     12968      4323  TIP3      H1             -2.6023605324      -12.5374548050        4.0861600322  W2        4841            0.0000000000
     12969      4323  TIP3      H2             -2.8388405324      -14.0195248050        4.2847400322  W2        4841            0.0000000000
     12970      4324  TIP3      OH2            -3.5293305324      -11.8239148050       10.3872200322  W2        4842            0.0000000000
     12971      4324  TIP3      H1             -3.6794505324      -12.7690548050       10.3670000322  W2        4842            0.0000000000
     12972      4324  TIP3      H2             -3.8828805324      -11.5427748050       11.2311300322  W2        4842            0.0000000000
     12973      4325  TIP3      OH2           -18.4940905324       -9.7456948050       14.3976000322  W2        4843            0.0000000000
     12974      4325  TIP3      H1            -18.3098005324       -9.8275248050       13.4618900322  W2        4843            0.0000000000
     12975      4325  TIP3      H2            -17.6448005324       -9.8699948050       14.8212400322  W2        4843            0.0000000000
     12976      4326  TIP3      OH2            -3.4514205324      -15.7961748050        3.8837400322  W2        4846            0.0000000000
     12977      4326  TIP3      H1             -2.8408405324      -16.1674948050        4.5205600322  W2        4846            0.0000000000
     12978      4326  TIP3      H2             -4.2882705324      -16.2174848050        4.0797400322  W2        4846            0.0000000000
     12979      4327  TIP3      OH2            -3.8188505324      -14.2413348050        8.8497300322  W2        4847            0.0000000000
     12980      4327  TIP3      H1             -3.5391405324      -15.1482948050        8.9739000322  W2        4847            0.0000000000
     12981      4327  TIP3      H2             -3.0596805324      -13.8071848050        8.4606500322  W2        4847            0.0000000000
     12982      4328  TIP3      OH2            -3.2070205324      -13.6595948050       14.2856200322  W2        4848            0.0000000000
     12983      4328  TIP3      H1             -2.2742205324      -13.4476048050       14.2512200322  W2        4848            0.0000000000
     12984      4328  TIP3      H2             -3.4422705324      -13.5583848050       15.2079200322  W2        4848            0.0000000000
     12985      4329  TIP3      OH2            -3.2053705324      -16.9784048050        8.8979300322  W2        4852            0.0000000000
     12986      4329  TIP3      H1             -3.0228705324      -17.4272548050        9.7234300322  W2        4852            0.0000000000
     12987      4329  TIP3      H2             -3.8050805324      -17.5629648050        8.4343900322  W2        4852            0.0000000000
     12988      4330  TIP3      OH2           -17.6753605324      -16.1630348050       13.4297700322  W2        4853            0.0000000000
     12989      4330  TIP3      H1            -17.2302005324      -16.9547848050       13.7317400322  W2        4853            0.0000000000
     12990      4330  TIP3      H2            -17.2090605324      -15.4465148050       13.8603300322  W2        4853            0.0000000000
     12991      4331  TIP3      OH2           -19.3713305324      -13.1637348050       14.4987900322  W2        4854            0.0000000000
     12992      4331  TIP3      H1            -18.8793505324      -13.3846848050       13.7079900322  W2        4854            0.0000000000
     12993      4331  TIP3      H2            -19.0092405324      -12.3233948050       14.7797400322  W2        4854            0.0000000000
     12994      4332  TIP3      OH2            -1.3387505324      -16.9105948050        5.4259600322  W2        4856            0.0000000000
     12995      4332  TIP3      H1             -0.9264905324      -17.6320248050        4.9507600322  W2        4856            0.0000000000
     12996      4332  TIP3      H2             -0.6571005324      -16.2411348050        5.4843900322  W2        4856            0.0000000000
     12997      4333  TIP3      OH2           -19.0576805324      -16.9058248050        8.5530300322  W2        4857            0.0000000000
     12998      4333  TIP3      H1            -19.9828405324      -16.6971648050        8.4235800322  W2        4857            0.0000000000
     12999      4333  TIP3      H2            -18.6036905324      -16.4217448050        7.8632600322  W2        4857            0.0000000000
     13000      4334  TIP3      OH2            -4.2869605324       -1.9216548050       10.4987700322  W2        4858            0.0000000000
     13001      4334  TIP3      H1             -3.6346705324       -2.2694448050        9.8906800322  W2        4858            0.0000000000
     13002      4334  TIP3      H2             -3.7765805324       -1.4333348050       11.1447400322  W2        4858            0.0000000000
     13003      4335  TIP3      OH2           -17.1314405324       -2.1387548050       14.2579700322  W2        4870            0.0000000000
     13004      4335  TIP3      H1            -17.1498405324       -2.5642448050       15.1152000322  W2        4870            0.0000000000
     13005      4335  TIP3      H2            -16.3266505324       -2.4572548050       13.8491900322  W2        4870            0.0000000000
     13006      4336  TIP3      OH2           -14.9901305324       -3.4288848050       12.9129600322  W2        4871            0.0000000000
     13007      4336  TIP3      H1            -15.2090605324       -4.3451448050       13.0825600322  W2        4871            0.0000000000
     13008      4336  TIP3      H2            -14.1659105324       -3.2888448050       13.3791000322  W2        4871            0.0000000000
     13009      4337  TIP3      OH2           -12.4528805324       -2.9589548050       13.7617600322  W2        4872            0.0000000000
     13010      4337  TIP3      H1            -12.2403105324       -3.8470548050       13.4748500322  W2        4872            0.0000000000
     13011      4337  TIP3      H2            -12.3883705324       -2.9931848050       14.7161600322  W2        4872            0.0000000000
     13012      4338  TIP3      OH2            -8.9445105324      -17.2948948050       12.9060900322  W2        4873            0.0000000000
     13013      4338  TIP3      H1             -9.6188305324      -17.9243348050       13.1616700322  W2        4873            0.0000000000
     13014      4338  TIP3      H2             -8.3805905324      -17.7790048050       12.3028800322  W2        4873            0.0000000000
     13015      4339  TIP3      OH2            -3.8017905324      -19.1874948050       13.0188000322  W2        4874            0.0000000000
     13016      4339  TIP3      H1             -3.1980305324      -18.6399548050       12.5169000322  W2        4874            0.0000000000
     13017      4339  TIP3      H2             -4.6715905324      -18.8684548050       12.7782100322  W2        4874            0.0000000000
     13018      4340  TIP3      OH2            -2.0747505324      -18.0486248050       11.3518900322  W2        4875            0.0000000000
     13019      4340  TIP3      H1             -1.4630005324      -18.5630548050       10.8252500322  W2        4875            0.0000000000
     13020      4340  TIP3      H2             -1.6924105324      -17.1714148050       11.3753300322  W2        4875            0.0000000000
     13021      4341  TIP3      OH2           -16.6177605324      -18.6608648050       10.7280800322  W2        4876            0.0000000000
     13022      4341  TIP3      H1            -17.3947805324      -18.8953748050       10.2206700322  W2        4876            0.0000000000
     13023      4341  TIP3      H2            -16.0874005324      -19.4576548050       10.7368800322  W2        4876            0.0000000000
     13024      4342  TIP3      OH2           -17.7814205324      -18.8630548050        6.5316900322  W2        4877            0.0000000000
     13025      4342  TIP3      H1            -17.3423505324      -18.2520048050        5.9400400322  W2        4877            0.0000000000
     13026      4342  TIP3      H2            -18.4151805324      -18.3246448050        7.0056900322  W2        4877            0.0000000000
     13027      4343  TIP3      OH2           -12.0385005324      -18.7341548050       10.5413900322  W2        4878            0.0000000000
     13028      4343  TIP3      H1            -11.1641605324      -18.3457248050       10.5118200322  W2        4878            0.0000000000
     13029      4343  TIP3      H2            -12.1744205324      -18.9493748050       11.4641100322  W2        4878            0.0000000000
     13030      4344  TIP3      OH2            -6.4816605324      -18.7041748050       12.1905600322  W2        4879            0.0000000000
     13031      4344  TIP3      H1             -6.4055005324      -18.6090148050       11.2411600322  W2        4879            0.0000000000
     13032      4344  TIP3      H2             -6.7567405324      -19.6118848050       12.3194700322  W2        4879            0.0000000000
     13033      4345  TIP3      OH2            -5.1284005324      -18.6783948050        7.8830600322  W2        4880            0.0000000000
     13034      4345  TIP3      H1             -5.8312905324      -18.0634748050        7.6732000322  W2        4880            0.0000000000
     13035      4345  TIP3      H2             -5.5732605324      -19.5157248050        8.0141500322  W2        4880            0.0000000000
     13036      4346  TIP3      OH2           -17.8804705324       -2.9148348050        7.4292000322  W2        4881            0.0000000000
     13037      4346  TIP3      H1            -18.5654805324       -2.9529448050        6.7617100322  W2        4881            0.0000000000
     13038      4346  TIP3      H2            -17.8767505324       -2.0020748050        7.7174100322  W2        4881            0.0000000000
     13039      4347  TIP3      OH2           -15.9205105324      -16.9469048050        4.9741000322  W2        4882            0.0000000000
     13040      4347  TIP3      H1            -15.4291705324      -17.5766648050        4.4466500322  W2        4882            0.0000000000
     13041      4347  TIP3      H2            -15.2968805324      -16.6509648050        5.6372200322  W2        4882            0.0000000000
     13042      4348  TIP3      OH2           -10.8945005324      -16.6537548050        7.4311500322  W2        4883            0.0000000000
     13043      4348  TIP3      H1            -10.7163705324      -17.3004348050        8.1140100322  W2        4883            0.0000000000
     13044      4348  TIP3      H2            -10.9478805324      -15.8199848050        7.8982600322  W2        4883            0.0000000000
     13045      4349  TIP3      OH2            -9.0161205324       -1.7053448050        5.8268200322  W2        4884            0.0000000000
     13046      4349  TIP3      H1             -8.1501005324       -1.3386048050        5.6486400322  W2        4884            0.0000000000
     13047      4349  TIP3      H2             -9.2628405324       -2.1445448050        5.0129000322  W2        4884            0.0000000000
     13048      4350  TIP3      OH2            -2.3071605324       -2.1423148050        8.5059300322  W2        4885            0.0000000000
     13049      4350  TIP3      H1             -2.5014505324       -2.8901048050        7.9408900322  W2        4885            0.0000000000
     13050      4350  TIP3      H2             -2.3461505324       -1.3843048050        7.9227200322  W2        4885            0.0000000000
     13051      4351  TIP3      OH2           -16.0623505324       -1.9947548050        4.4544100322  W2        4888            0.0000000000
     13052      4351  TIP3      H1            -16.3298905324       -1.7084648050        5.3277200322  W2        4888            0.0000000000
     13053      4351  TIP3      H2            -15.2910905324       -2.5408348050        4.6066600322  W2        4888            0.0000000000
     13054      4352  TIP3      OH2            11.3164994676       -9.5046348050       10.6868300322  W2        4891            0.0000000000
     13055      4352  TIP3      H1             11.4056094676       -8.5608148050       10.5545400322  W2        4891            0.0000000000
     13056      4352  TIP3      H2             10.6782594676       -9.7799948050       10.0287700322  W2        4891            0.0000000000
     13057      4353  TIP3      OH2            10.2496294676      -10.2495648050       14.1056500322  W2        4892            0.0000000000
     13058      4353  TIP3      H1             10.2113794676      -10.8959348050       14.8106100322  W2        4892            0.0000000000
     13059      4353  TIP3      H2              9.9272794676      -10.7161248050       13.3345200322  W2        4892            0.0000000000
     13060      4354  TIP3      OH2            13.9556494676       -7.3105248050       12.4071600322  W2        4894            0.0000000000
     13061      4354  TIP3      H1             13.5149194676       -8.0309248050       12.8577200322  W2        4894            0.0000000000
     13062      4354  TIP3      H2             13.9426194676       -6.5898048050       13.0369300322  W2        4894            0.0000000000
     13063      4355  TIP3      OH2             3.5414394676       -6.1854648050       14.2335500322  W2        4895            0.0000000000
     13064      4355  TIP3      H1              3.1719594676       -6.9874148050       13.8639800322  W2        4895            0.0000000000
     13065      4355  TIP3      H2              4.4825494676       -6.3539748050       14.2798900322  W2        4895            0.0000000000
     13066      4356  TIP3      OH2             0.1514894676      -12.5252048050        9.6264300322  W2        4896            0.0000000000
     13067      4356  TIP3      H1             -0.2961705324      -11.6793348050        9.6080800322  W2        4896            0.0000000000
     13068      4356  TIP3      H2             -0.4093905324      -13.1047848050        9.1109400322  W2        4896            0.0000000000
     13069      4357  TIP3      OH2             0.8620994676      -10.3632448050       11.7522300322  W2        4897            0.0000000000
     13070      4357  TIP3      H1              1.0754494676      -11.1330848050       12.2795300322  W2        4897            0.0000000000
     13071      4357  TIP3      H2              1.5998594676      -10.2735748050       11.1489900322  W2        4897            0.0000000000
     13072      4358  TIP3      OH2            11.0671994676       -2.2063548050       12.6192000322  W2        4898            0.0000000000
     13073      4358  TIP3      H1             11.6868394676       -2.8828848050       12.3461200322  W2        4898            0.0000000000
     13074      4358  TIP3      H2             10.8589394676       -2.4242748050       13.5276900322  W2        4898            0.0000000000
     13075      4359  TIP3      OH2             8.6390694676       -7.8174248050       14.5117500322  W2        4899            0.0000000000
     13076      4359  TIP3      H1              8.9428594676       -8.5032848050       13.9171600322  W2        4899            0.0000000000
     13077      4359  TIP3      H2              9.3604694676       -7.6985548050       15.1295500322  W2        4899            0.0000000000
     13078      4360  TIP3      OH2            11.7797694676      -13.4231848050       14.8392300322  W2        4901            0.0000000000
     13079      4360  TIP3      H1             11.9223594676      -14.3694848050       14.8593900322  W2        4901            0.0000000000
     13080      4360  TIP3      H2             11.6736694676      -13.2162048050       13.9107200322  W2        4901            0.0000000000
     13081      4361  TIP3      OH2             4.9345994676      -15.3215448050       12.1117100322  W2        4902            0.0000000000
     13082      4361  TIP3      H1              4.9777094676      -14.4616948050       11.6933400322  W2        4902            0.0000000000
     13083      4361  TIP3      H2              4.4770094676      -15.8740748050       11.4780300322  W2        4902            0.0000000000
     13084      4362  TIP3      OH2            12.6568694676      -15.1909848050       10.5125400322  W2        4903            0.0000000000
     13085      4362  TIP3      H1             13.3032994676      -15.5196648050       11.1373000322  W2        4903            0.0000000000
     13086      4362  TIP3      H2             13.1668094676      -14.6730848050        9.8896800322  W2        4903            0.0000000000
     13087      4363  TIP3      OH2             1.5547494676      -12.9249648050       12.8738500322  W2        4904            0.0000000000
     13088      4363  TIP3      H1              2.2084094676      -13.4747948050       13.3058600322  W2        4904            0.0000000000
     13089      4363  TIP3      H2              1.5786794676      -13.1990648050       11.9570500322  W2        4904            0.0000000000
     13090      4364  TIP3      OH2             6.7111994676      -11.3748348050       12.0890000322  W2        4905            0.0000000000
     13091      4364  TIP3      H1              7.3272994676      -11.9012948050       12.5984000322  W2        4905            0.0000000000
     13092      4364  TIP3      H2              6.1250794676      -12.0149648050       11.6853600322  W2        4905            0.0000000000
     13093      4365  TIP3      OH2            11.1137694676       -6.9035948050        9.7297000322  W2        4908            0.0000000000
     13094      4365  TIP3      H1             10.8182794676       -7.2263648050        8.8783900322  W2        4908            0.0000000000
     13095      4365  TIP3      H2             10.7895494676       -6.0039248050        9.7709600322  W2        4908            0.0000000000
     13096      4366  TIP3      OH2            14.4207094676      -15.9000548050       12.4931300322  W2        4910            0.0000000000
     13097      4366  TIP3      H1             14.2055094676      -16.6657148050       13.0257300322  W2        4910            0.0000000000
     13098      4366  TIP3      H2             15.0764494676      -15.4275948050       13.0059800322  W2        4910            0.0000000000
     13099      4367  TIP3      OH2             3.3385194676      -14.5115248050       14.1380100322  W2        4911            0.0000000000
     13100      4367  TIP3      H1              3.9521494676      -13.8787648050       14.5112500322  W2        4911            0.0000000000
     13101      4367  TIP3      H2              3.8505894676      -14.9840248050       13.4817000322  W2        4911            0.0000000000
     13102      4368  TIP3      OH2             0.8424494676       -7.0930448050        8.0422400322  W2        4913            0.0000000000
     13103      4368  TIP3      H1              0.5705394676       -6.8639448050        7.1535300322  W2        4913            0.0000000000
     13104      4368  TIP3      H2              0.8880194676       -6.2551648050        8.5027700322  W2        4913            0.0000000000
     13105      4369  TIP3      OH2            14.4674194676       -5.4714548050       14.7550900322  W2        4914            0.0000000000
     13106      4369  TIP3      H1             13.5257894676       -5.4130648050       14.9167800322  W2        4914            0.0000000000
     13107      4369  TIP3      H2             14.7440294676       -4.5654048050       14.6180600322  W2        4914            0.0000000000
     13108      4370  TIP3      OH2             7.7712594676      -19.0981948050       13.6382800322  W2        4916            0.0000000000
     13109      4370  TIP3      H1              7.6536794676      -20.0465948050       13.5841100322  W2        4916            0.0000000000
     13110      4370  TIP3      H2              6.9162694676      -18.7655848050       13.9113900322  W2        4916            0.0000000000
     13111      4371  TIP3      OH2            12.7195394676       -3.6901048050       11.3802500322  W2        4917            0.0000000000
     13112      4371  TIP3      H1             13.1447694676       -4.3973148050       10.8952100322  W2        4917            0.0000000000
     13113      4371  TIP3      H2             13.0365394676       -2.8888348050       10.9634700322  W2        4917            0.0000000000
     13114      4372  TIP3      OH2            13.8791894676       -5.7892548050        9.8889100322  W2        4918            0.0000000000
     13115      4372  TIP3      H1             13.6216694676       -6.4792448050        9.2775000322  W2        4918            0.0000000000
     13116      4372  TIP3      H2             13.9502694676       -6.2321348050       10.7345000322  W2        4918            0.0000000000
     13117      4373  TIP3      OH2            10.0377494676      -10.2606348050        8.1388600322  W2        4920            0.0000000000
     13118      4373  TIP3      H1              9.3262994676       -9.7256648050        7.7869100322  W2        4920            0.0000000000
     13119      4373  TIP3      H2             10.7287094676      -10.2054248050        7.4787500322  W2        4920            0.0000000000
     13120      4374  TIP3      OH2            10.0916694676      -11.8032048050        5.1773600322  W2        4921            0.0000000000
     13121      4374  TIP3      H1             10.7926594676      -11.7805148050        5.8287600322  W2        4921            0.0000000000
     13122      4374  TIP3      H2             10.3939594676      -12.4312348050        4.5212900322  W2        4921            0.0000000000
     13123      4375  TIP3      OH2            13.4435194676      -10.0513048050        9.0904500322  W2        4923            0.0000000000
     13124      4375  TIP3      H1             12.7116194676       -9.8229348050        9.6635100322  W2        4923            0.0000000000
     13125      4375  TIP3      H2             13.8907394676      -10.7650348050        9.5452000322  W2        4923            0.0000000000
     13126      4376  TIP3      OH2             5.0888894676       -9.4206848050       10.9729500322  W2        4925            0.0000000000
     13127      4376  TIP3      H1              4.7584094676       -9.7913448050       10.1546500322  W2        4925            0.0000000000
     13128      4376  TIP3      H2              5.6772994676      -10.0912848050       11.3197800322  W2        4925            0.0000000000
     13129      4377  TIP3      OH2             6.4556394676       -5.9926248050       13.6541700322  W2        4926            0.0000000000
     13130      4377  TIP3      H1              6.3607694676       -6.5713148050       12.8976300322  W2        4926            0.0000000000
     13131      4377  TIP3      H2              7.1849994676       -6.3640548050       14.1504500322  W2        4926            0.0000000000
     13132      4378  TIP3      OH2             5.4554394676      -10.6521248050       14.6064500322  W2        4927            0.0000000000
     13133      4378  TIP3      H1              6.0206894676      -10.5307048050       13.8435700322  W2        4927            0.0000000000
     13134      4378  TIP3      H2              5.7743294676      -10.0146248050       15.2453000322  W2        4927            0.0000000000
     13135      4379  TIP3      OH2            12.3144694676      -10.8890148050        6.7755700322  W2        4930            0.0000000000
     13136      4379  TIP3      H1             12.8940194676      -10.7389848050        7.5224600322  W2        4930            0.0000000000
     13137      4379  TIP3      H2             12.7284694676      -10.4182748050        6.0522100322  W2        4930            0.0000000000
     13138      4380  TIP3      OH2            10.0409594676       -4.1521648050       10.2108800322  W2        4932            0.0000000000
     13139      4380  TIP3      H1             10.5147194676       -3.8565348050       10.9883000322  W2        4932            0.0000000000
     13140      4380  TIP3      H2              9.4778894676       -3.4140048050        9.9778400322  W2        4932            0.0000000000
     13141      4381  TIP3      OH2            16.0133094676      -19.1389748050        6.5885400322  W2        4934            0.0000000000
     13142      4381  TIP3      H1             15.1133794676      -19.0000748050        6.8836000322  W2        4934            0.0000000000
     13143      4381  TIP3      H2             16.2651494676      -18.3075148050        6.1867100322  W2        4934            0.0000000000
     13144      4382  TIP3      OH2             4.0791594676      -10.3512548050        8.5622300322  W2        4935            0.0000000000
     13145      4382  TIP3      H1              3.7872894676       -9.5830848050        8.0713600322  W2        4935            0.0000000000
     13146      4382  TIP3      H2              3.4046794676      -11.0106348050        8.3993700322  W2        4935            0.0000000000
     13147      4383  TIP3      OH2            17.2024494676       -4.7727348050        4.9649300322  W2        4936            0.0000000000
     13148      4383  TIP3      H1             17.2757994676       -3.8337148050        5.1354600322  W2        4936            0.0000000000
     13149      4383  TIP3      H2             18.1079594676       -5.0778748050        4.9086600322  W2        4936            0.0000000000
     13150      4384  TIP3      OH2            -0.0775605324       -5.2079548050       14.2612300322  W2        4938            0.0000000000
     13151      4384  TIP3      H1              0.8684994676       -5.3522548050       14.2421800322  W2        4938            0.0000000000
     13152      4384  TIP3      H2             -0.1899305324       -4.4236748050       14.7983500322  W2        4938            0.0000000000
     13153      4385  TIP3      OH2             9.5132694676       -1.1956948050        8.6258000322  W2        4941            0.0000000000
     13154      4385  TIP3      H1              9.4378694676       -1.3169748050        7.6793200322  W2        4941            0.0000000000
     13155      4385  TIP3      H2              9.5461394676       -0.2464248050        8.7442600322  W2        4941            0.0000000000
     13156      4386  TIP3      OH2             3.1666494676       -2.4069948050       10.4067000322  W2        4942            0.0000000000
     13157      4386  TIP3      H1              3.3186894676       -2.7549548050       11.2853500322  W2        4942            0.0000000000
     13158      4386  TIP3      H2              2.3156894676       -2.7632648050       10.1514200322  W2        4942            0.0000000000
     13159      4387  TIP3      OH2            12.6148694676       -2.0416748050        5.6280400322  W2        4943            0.0000000000
     13160      4387  TIP3      H1             12.9897094676       -2.7860648050        5.1573000322  W2        4943            0.0000000000
     13161      4387  TIP3      H2             12.6192394676       -2.3116148050        6.5463700322  W2        4943            0.0000000000
     13162      4388  TIP3      OH2            12.2836794676       -2.1159648050        8.3772600322  W2        4944            0.0000000000
     13163      4388  TIP3      H1             11.3486594676       -2.0157748050        8.5559600322  W2        4944            0.0000000000
     13164      4388  TIP3      H2             12.5638694676       -2.8253648050        8.9555800322  W2        4944            0.0000000000
     13165      4389  TIP3      OH2             5.0400194676      -18.1947448050       14.4159100322  W2        4947            0.0000000000
     13166      4389  TIP3      H1              4.1783894676      -18.2819248050       14.0082000322  W2        4947            0.0000000000
     13167      4389  TIP3      H2              5.0175894676      -17.3387348050       14.8436700322  W2        4947            0.0000000000
     13168      4390  TIP3      OH2            13.7917794676       -9.8561848050        4.4053600322  W2        4950            0.0000000000
     13169      4390  TIP3      H1             13.8338594676      -10.0787948050        3.4753600322  W2        4950            0.0000000000
     13170      4390  TIP3      H2             14.6409894676       -9.4574748050        4.5953500322  W2        4950            0.0000000000
     13171      4391  TIP3      OH2             9.3645294676      -15.9803648050        5.0756900322  W2        4951            0.0000000000
     13172      4391  TIP3      H1              9.1110094676      -15.9612048050        5.9985000322  W2        4951            0.0000000000
     13173      4391  TIP3      H2              9.1077394676      -16.8518248050        4.7743100322  W2        4951            0.0000000000
     13174      4392  TIP3      OH2             5.1279394676      -13.0082848050       10.4229300322  W2        4953            0.0000000000
     13175      4392  TIP3      H1              4.2352294676      -13.3486748050       10.3643100322  W2        4953            0.0000000000
     13176      4392  TIP3      H2              5.5785994676      -13.3851948050        9.6672500322  W2        4953            0.0000000000
     13177      4393  TIP3      OH2            10.6634894676      -12.5922548050        9.2400100322  W2        4954            0.0000000000
     13178      4393  TIP3      H1             10.2545194676      -11.7773948050        8.9484900322  W2        4954            0.0000000000
     13179      4393  TIP3      H2             11.3841094676      -12.7322448050        8.6257200322  W2        4954            0.0000000000
     13180      4394  TIP3      OH2            11.6682594676      -13.1462148050       12.0539800322  W2        4956            0.0000000000
     13181      4394  TIP3      H1             11.4727094676      -12.5405348050       11.3390400322  W2        4956            0.0000000000
     13182      4394  TIP3      H2             11.8495194676      -13.9796948050       11.6196100322  W2        4956            0.0000000000
     13183      4395  TIP3      OH2             6.2468194676      -15.5347148050        4.1767300322  W2        4958            0.0000000000
     13184      4395  TIP3      H1              5.8158894676      -15.9797048050        4.9064700322  W2        4958            0.0000000000
     13185      4395  TIP3      H2              5.5286894676      -15.1630848050        3.6644800322  W2        4958            0.0000000000
     13186      4396  TIP3      OH2            -0.5108405324      -15.7927648050       11.2286000322  W2        4959            0.0000000000
     13187      4396  TIP3      H1              0.1199294676      -15.8215548050       11.9479900322  W2        4959            0.0000000000
     13188      4396  TIP3      H2             -0.0614105324      -16.2178948050       10.4981900322  W2        4959            0.0000000000
     13189      4397  TIP3      OH2             0.7633694676      -15.0465648050        6.6526400322  W2        4960            0.0000000000
     13190      4397  TIP3      H1              1.2375394676      -14.4555748050        6.0677300322  W2        4960            0.0000000000
     13191      4397  TIP3      H2              0.0460094676      -14.5162748050        6.9996500322  W2        4960            0.0000000000
     13192      4398  TIP3      OH2             7.7094694676      -15.5805348050       11.5093400322  W2        4962            0.0000000000
     13193      4398  TIP3      H1              6.7985794676      -15.5238548050       11.7979400322  W2        4962            0.0000000000
     13194      4398  TIP3      H2              8.2147594676      -15.6409848050       12.3200600322  W2        4962            0.0000000000
     13195      4399  TIP3      OH2             2.5378094676      -13.9519048050       10.3361000322  W2        4963            0.0000000000
     13196      4399  TIP3      H1              1.6486094676      -13.8523548050        9.9960600322  W2        4963            0.0000000000
     13197      4399  TIP3      H2              2.8342994676      -14.7936048050        9.9898900322  W2        4963            0.0000000000
     13198      4400  TIP3      OH2             6.1909894676      -13.9516448050        7.9925600322  W2        4964            0.0000000000
     13199      4400  TIP3      H1              7.1225394676      -13.8226448050        8.1708700322  W2        4964            0.0000000000
     13200      4400  TIP3      H2              5.9760194676      -13.2822148050        7.3430300322  W2        4964            0.0000000000
     13201      4401  TIP3      OH2            12.1146594676      -16.3459048050       14.7735200322  W2        4965            0.0000000000
     13202      4401  TIP3      H1             11.4378194676      -16.2145948050       15.4374900322  W2        4965            0.0000000000
     13203      4401  TIP3      H2             11.6291494676      -16.5009548050       13.9632900322  W2        4965            0.0000000000
     13204      4402  TIP3      OH2             4.8650094676      -12.7574248050        5.5591700322  W2        4966            0.0000000000
     13205      4402  TIP3      H1              4.3225194676      -13.1370448050        4.8679300322  W2        4966            0.0000000000
     13206      4402  TIP3      H2              5.6984994676      -12.5629548050        5.1305800322  W2        4966            0.0000000000
     13207      4403  TIP3      OH2             9.0294394676      -12.7932348050       13.3963000322  W2        4969            0.0000000000
     13208      4403  TIP3      H1              9.5937794676      -13.3395748050       12.8492600322  W2        4969            0.0000000000
     13209      4403  TIP3      H2              8.8817794676      -13.3150448050       14.1850600322  W2        4969            0.0000000000
     13210      4404  TIP3      OH2             4.0314094676      -16.6566248050        9.8147800322  W2        4970            0.0000000000
     13211      4404  TIP3      H1              3.7143594676      -17.5590948050        9.7793200322  W2        4970            0.0000000000
     13212      4404  TIP3      H2              4.8128194676      -16.6548848050        9.2619400322  W2        4970            0.0000000000
     13213      4405  TIP3      OH2             8.2002894676       -8.1918548050        7.4949800322  W2        4972            0.0000000000
     13214      4405  TIP3      H1              7.4553894676       -8.6993248050        7.1727700322  W2        4972            0.0000000000
     13215      4405  TIP3      H2              8.0660094676       -8.1430548050        8.4414600322  W2        4972            0.0000000000
     13216      4406  TIP3      OH2            12.0979694676      -15.3778648050        5.6942400322  W2        4974            0.0000000000
     13217      4406  TIP3      H1             11.1593894676      -15.2663048050        5.5431200322  W2        4974            0.0000000000
     13218      4406  TIP3      H2             12.3951794676      -14.5211748050        6.0008100322  W2        4974            0.0000000000
     13219      4407  TIP3      OH2            12.8163194676      -13.5105948050        7.3549800322  W2        4976            0.0000000000
     13220      4407  TIP3      H1             13.7082194676      -13.6480948050        7.6741000322  W2        4976            0.0000000000
     13221      4407  TIP3      H2             12.8726794676      -12.7199848050        6.8183300322  W2        4976            0.0000000000
     13222      4408  TIP3      OH2             3.3251194676       -8.8968548050       13.2647700322  W2        4977            0.0000000000
     13223      4408  TIP3      H1              4.0698394676       -8.8992848050       12.6634200322  W2        4977            0.0000000000
     13224      4408  TIP3      H2              3.4027794676       -9.7204748050       13.7462800322  W2        4977            0.0000000000
     13225      4409  TIP3      OH2            10.3256994676       -6.7334248050        6.5204400322  W2        4978            0.0000000000
     13226      4409  TIP3      H1             10.0305394676       -5.9066348050        6.9019200322  W2        4978            0.0000000000
     13227      4409  TIP3      H2              9.6226994676       -7.3527348050        6.7165800322  W2        4978            0.0000000000
     13228      4410  TIP3      OH2            17.7011894676      -13.3011848050        7.0496500322  W2        4982            0.0000000000
     13229      4410  TIP3      H1             17.1468194676      -13.6973848050        6.3774000322  W2        4982            0.0000000000
     13230      4410  TIP3      H2             17.8015494676      -12.3906648050        6.7719800322  W2        4982            0.0000000000
     13231      4411  TIP3      OH2            15.9963594676       -4.5151448050        7.5148600322  W2        4984            0.0000000000
     13232      4411  TIP3      H1             15.6234694676       -5.3407648050        7.8239200322  W2        4984            0.0000000000
     13233      4411  TIP3      H2             16.2737094676       -4.6982048050        6.6172000322  W2        4984            0.0000000000
     13234      4412  TIP3      OH2            13.1567494676       -9.7071948050       14.5360500322  W2        4985            0.0000000000
     13235      4412  TIP3      H1             12.2284394676       -9.9390048050       14.5089800322  W2        4985            0.0000000000
     13236      4412  TIP3      H2             13.6078594676      -10.4842148050       14.2059300322  W2        4985            0.0000000000
     13237      4413  TIP3      OH2             5.7000594676       -5.3790348050       10.6689200322  W2        4986            0.0000000000
     13238      4413  TIP3      H1              6.2272794676       -4.6055948050       10.4688000322  W2        4986            0.0000000000
     13239      4413  TIP3      H2              4.8199094676       -5.1541148050       10.3673200322  W2        4986            0.0000000000
     13240      4414  TIP3      OH2             1.4548294676      -10.5166248050        5.2561600322  W2        4987            0.0000000000
     13241      4414  TIP3      H1              2.0708194676       -9.8899048050        5.6356400322  W2        4987            0.0000000000
     13242      4414  TIP3      H2              0.5930894676      -10.2006448050        5.5278100322  W2        4987            0.0000000000
     13243      4415  TIP3      OH2             7.1272894676       -7.7160448050       10.2453500322  W2        4988            0.0000000000
     13244      4415  TIP3      H1              6.8862894676       -6.7906048050       10.2868800322  W2        4988            0.0000000000
     13245      4415  TIP3      H2              6.3866494676       -8.1749148050       10.6417400322  W2        4988            0.0000000000
     13246      4416  TIP3      OH2             5.8103694676       -2.6942848050        9.7905700322  W2        4990            0.0000000000
     13247      4416  TIP3      H1              4.8604194676       -2.5885448050        9.8419000322  W2        4990            0.0000000000
     13248      4416  TIP3      H2              6.1621794676       -1.8735448050       10.1353200322  W2        4990            0.0000000000
     13249      4417  TIP3      OH2            13.3889194676       -6.5385648050        5.3349200322  W2        4992            0.0000000000
     13250      4417  TIP3      H1             13.7422294676       -6.9185848050        6.1392700322  W2        4992            0.0000000000
     13251      4417  TIP3      H2             12.4402694676       -6.6320848050        5.4218500322  W2        4992            0.0000000000
     13252      4418  TIP3      OH2            17.8923594676       -2.0593148050        5.5359400322  W2        4994            0.0000000000
     13253      4418  TIP3      H1             18.6361494676       -1.4732648050        5.3961000322  W2        4994            0.0000000000
     13254      4418  TIP3      H2             17.1981694676       -1.4907348050        5.8691800322  W2        4994            0.0000000000
     13255      4419  TIP3      OH2            14.2548494676       -7.8663648050        7.5617100322  W2        4996            0.0000000000
     13256      4419  TIP3      H1             13.9776094676       -8.5944348050        8.1178200322  W2        4996            0.0000000000
     13257      4419  TIP3      H2             15.1821494676       -7.7471648050        7.7669700322  W2        4996            0.0000000000
     13258      4420  TIP3      OH2             7.4796994676       -5.4269548050        3.7819200322  W2        4998            0.0000000000
     13259      4420  TIP3      H1              7.7186794676       -6.1751448050        3.2348100322  W2        4998            0.0000000000
     13260      4420  TIP3      H2              7.2108294676       -5.8147848050        4.6147000322  W2        4998            0.0000000000
     13261      4421  TIP3      OH2             6.4167594676       -5.8565748050        6.2381800322  W2        4999            0.0000000000
     13262      4421  TIP3      H1              6.5635594676       -6.3765948050        7.0282700322  W2        4999            0.0000000000
     13263      4421  TIP3      H2              6.4139294676       -4.9498148050        6.5447700322  W2        4999            0.0000000000
     13264      4422  TIP3      OH2             2.8698694676       -8.6042448050        6.7487200322  W2        5000            0.0000000000
     13265      4422  TIP3      H1              2.1837994676       -8.2519948050        7.3156900322  W2        5000            0.0000000000
     13266      4422  TIP3      H2              3.3926594676       -7.8412848050        6.5021500322  W2        5000            0.0000000000
     13267      4423  TIP3      OH2            11.4858694676      -16.2896948050        8.1248500322  W2        5002            0.0000000000
     13268      4423  TIP3      H1             11.7056994676      -15.8181548050        7.3213900322  W2        5002            0.0000000000
     13269      4423  TIP3      H2             12.0442694676      -15.8954348050        8.7949100322  W2        5002            0.0000000000
     13270      4424  TIP3      OH2             9.1544794676       -4.1592148050        6.9876000322  W2        5003            0.0000000000
     13271      4424  TIP3      H1              8.3380894676       -3.6622448050        7.0400300322  W2        5003            0.0000000000
     13272      4424  TIP3      H2              9.6841094676       -3.6838648050        6.3474800322  W2        5003            0.0000000000
     13273      4425  TIP3      OH2             8.6858594676      -14.5618148050        8.9596900322  W2        5004            0.0000000000
     13274      4425  TIP3      H1              9.4981194676      -14.0574948050        9.0058600322  W2        5004            0.0000000000
     13275      4425  TIP3      H2              8.4411594676      -14.7068448050        9.8736500322  W2        5004            0.0000000000
     13276      4426  TIP3      OH2             9.5695294676      -17.4805148050        9.8978000322  W2        5006            0.0000000000
     13277      4426  TIP3      H1              9.2228794676      -16.8634548050       10.5422300322  W2        5006            0.0000000000
     13278      4426  TIP3      H2             10.2282194676      -16.9799448050        9.4163500322  W2        5006            0.0000000000
     13279      4427  TIP3      OH2             6.4927894676       -3.1154948050        6.9692900322  W2        5007            0.0000000000
     13280      4427  TIP3      H1              6.6536594676       -2.3157448050        6.4685500322  W2        5007            0.0000000000
     13281      4427  TIP3      H2              6.2955694676       -2.8088948050        7.8543500322  W2        5007            0.0000000000
     13282      4428  TIP3      OH2             5.2272294676      -16.4175748050        6.5850500322  W2        5008            0.0000000000
     13283      4428  TIP3      H1              5.1437094676      -15.5292648050        6.9316900322  W2        5008            0.0000000000
     13284      4428  TIP3      H2              6.1172594676      -16.6829048050        6.8167300322  W2        5008            0.0000000000
     13285      4429  TIP3      OH2            14.0281794676      -11.9184148050       13.0750500322  W2        5010            0.0000000000
     13286      4429  TIP3      H1             13.2306194676      -12.3333948050       12.7465500322  W2        5010            0.0000000000
     13287      4429  TIP3      H2             14.4732894676      -12.6090448050       13.5661000322  W2        5010            0.0000000000
     13288      4430  TIP3      OH2             3.4857594676       -5.9903548050        5.6455000322  W2        5011            0.0000000000
     13289      4430  TIP3      H1              4.0779094676       -5.2908748050        5.9217400322  W2        5011            0.0000000000
     13290      4430  TIP3      H2              3.9450594676       -6.4234048050        4.9259600322  W2        5011            0.0000000000
     13291      4431  TIP3      OH2             1.8016794676      -13.3260548050        4.7614400322  W2        5012            0.0000000000
     13292      4431  TIP3      H1              1.7569394676      -12.3867448050        4.9401400322  W2        5012            0.0000000000
     13293      4431  TIP3      H2              0.9139994676      -13.5615648050        4.4916500322  W2        5012            0.0000000000
     13294      4432  TIP3      OH2            15.1146394676       -2.6621648050       14.6974000322  W2        5013            0.0000000000
     13295      4432  TIP3      H1             14.9590694676       -1.9837248050       14.0403300322  W2        5013            0.0000000000
     13296      4432  TIP3      H2             16.0472794676       -2.5902348050       14.9004600322  W2        5013            0.0000000000
     13297      4433  TIP3      OH2             2.6098794676      -18.5443948050       13.4345400322  W2        5014            0.0000000000
     13298      4433  TIP3      H1              2.3808594676      -18.4851448050       12.5070400322  W2        5014            0.0000000000
     13299      4433  TIP3      H2              2.1672194676      -19.3358448050       13.7409500322  W2        5014            0.0000000000
     13300      4434  TIP3      OH2             1.5402094676       -4.6036848050        9.5951200322  W2        5015            0.0000000000
     13301      4434  TIP3      H1              0.7080694676       -4.1314148050        9.6222600322  W2        5015            0.0000000000
     13302      4434  TIP3      H2              2.0860394676       -4.0939248050        8.9964300322  W2        5015            0.0000000000
     13303      4435  TIP3      OH2             9.5178794676       -3.5638148050        3.9205200322  W2        5018            0.0000000000
     13304      4435  TIP3      H1              8.8739794676       -4.1949548050        4.2418900322  W2        5018            0.0000000000
     13305      4435  TIP3      H2             10.2797094676       -4.0950148050        3.6888700322  W2        5018            0.0000000000
     13306      4436  TIP3      OH2            14.1221694676       -3.7468248050        4.1543200322  W2        5020            0.0000000000
     13307      4436  TIP3      H1             14.4052094676       -4.5413048050        4.6070100322  W2        5020            0.0000000000
     13308      4436  TIP3      H2             14.8619594676       -3.5137248050        3.5934300322  W2        5020            0.0000000000
     13309      4437  TIP3      OH2             5.0768994676       -7.8373348050        4.0118100322  W2        5022            0.0000000000
     13310      4437  TIP3      H1              5.1413094676       -8.6313748050        4.5424500322  W2        5022            0.0000000000
     13311      4437  TIP3      H2              5.7298194676       -7.9560548050        3.3220100322  W2        5022            0.0000000000
     13312      4438  TIP3      OH2            10.4292394676       -6.7901648050        3.7476100322  W2        5024            0.0000000000
     13313      4438  TIP3      H1             10.1606494676       -6.6099548050        4.6485000322  W2        5024            0.0000000000
     13314      4438  TIP3      H2             10.2227994676       -7.7155448050        3.6161900322  W2        5024            0.0000000000
     13315      4439  TIP3      OH2             6.2262794676       -9.8647148050        6.3176100322  W2        5027            0.0000000000
     13316      4439  TIP3      H1              5.7664794676      -10.3488848050        7.0034600322  W2        5027            0.0000000000
     13317      4439  TIP3      H2              6.4811494676      -10.5331748050        5.6816600322  W2        5027            0.0000000000
     13318      4440  TIP3      OH2             7.2973194676      -11.6215348050        4.5799300322  W2        5029            0.0000000000
     13319      4440  TIP3      H1              7.1168194676      -11.7764148050        3.6527600322  W2        5029            0.0000000000
     13320      4440  TIP3      H2              8.2473694676      -11.5136648050        4.6247200322  W2        5029            0.0000000000
     13321      4441  TIP3      OH2            16.6871494676       -9.2671148050        4.0257400322  W2        5031            0.0000000000
     13322      4441  TIP3      H1             16.4136294676       -9.6915648050        3.2125700322  W2        5031            0.0000000000
     13323      4441  TIP3      H2             16.7265594676       -8.3356648050        3.8087800322  W2        5031            0.0000000000
     13324      4442  TIP3      OH2             7.1944894676       -0.9311648050        5.5812900322  W2        5045            0.0000000000
     13325      4442  TIP3      H1              8.1275594676       -0.7732948050        5.7251300322  W2        5045            0.0000000000
     13326      4442  TIP3      H2              6.9303694676       -0.2558648050        4.9564400322  W2        5045            0.0000000000
     13327      4443  TIP3      OH2             0.7629794676       -6.2947848050        5.0641000322  W2        5046            0.0000000000
     13328      4443  TIP3      H1              1.6768994676       -6.2158948050        5.3374900322  W2        5046            0.0000000000
     13329      4443  TIP3      H2              0.7702894676       -6.9818248050        4.3976600322  W2        5046            0.0000000000
     13330      4444  TIP3      OH2            -0.5879605324       -0.9019348050       10.1414900322  W2        5047            0.0000000000
     13331      4444  TIP3      H1             -1.2352505324       -1.3637648050        9.6086100322  W2        5047            0.0000000000
     13332      4444  TIP3      H2             -0.2335005324       -1.5736048050       10.7241100322  W2        5047            0.0000000000
     13333      4445  TIP3      OH2             0.2819594676       -2.8212348050       11.9461100322  W2        5048            0.0000000000
     13334      4445  TIP3      H1             -0.0523605324       -3.7015048050       12.1181300322  W2        5048            0.0000000000
     13335      4445  TIP3      H2              0.5041994676       -2.4757348050       12.8106700322  W2        5048            0.0000000000
     13336      4446  TIP3      OH2            17.1454294676       -8.3983048050        8.0007800322  W2        5052            0.0000000000
     13337      4446  TIP3      H1             17.9955694676       -7.9772148050        8.1279400322  W2        5052            0.0000000000
     13338      4446  TIP3      H2             17.1509394676       -9.1382948050        8.6079200322  W2        5052            0.0000000000
     13339      4447  TIP3      OH2            17.5399894676      -10.3445648050        9.8243500322  W2        5053            0.0000000000
     13340      4447  TIP3      H1             16.8134494676      -10.8243048050       10.2221100322  W2        5053            0.0000000000
     13341      4447  TIP3      H2             18.1213194676      -10.1390948050       10.5565100322  W2        5053            0.0000000000
     13342      4448  TIP3      OH2            17.2991094676       -7.5598148050       14.7721100322  W2        5054            0.0000000000
     13343      4448  TIP3      H1             18.1325294676       -7.9378148050       14.4914700322  W2        5054            0.0000000000
     13344      4448  TIP3      H2             17.4111394676       -6.6166948050       14.6530200322  W2        5054            0.0000000000
     13345      4449  TIP3      OH2            17.8082994676      -10.4437148050        6.2154800322  W2        5056            0.0000000000
     13346      4449  TIP3      H1             17.2864094676      -10.0873048050        5.4965700322  W2        5056            0.0000000000
     13347      4449  TIP3      H2             17.7752194676       -9.7689348050        6.8935700322  W2        5056            0.0000000000
     13348      4450  TIP3      OH2            16.1571994676      -13.2041548050        4.7661900322  W2        5057            0.0000000000
     13349      4450  TIP3      H1             16.2536394676      -12.5374548050        4.0861600322  W2        5057            0.0000000000
     13350      4450  TIP3      H2             16.0171594676      -14.0195248050        4.2847400322  W2        5057            0.0000000000
     13351      4451  TIP3      OH2            15.3266694676      -11.8239148050       10.3872200322  W2        5058            0.0000000000
     13352      4451  TIP3      H1             15.1765494676      -12.7690548050       10.3670000322  W2        5058            0.0000000000
     13353      4451  TIP3      H2             14.9731194676      -11.5427748050       11.2311300322  W2        5058            0.0000000000
     13354      4452  TIP3      OH2             0.3619094676       -9.7456948050       14.3976000322  W2        5059            0.0000000000
     13355      4452  TIP3      H1              0.5461994676       -9.8275248050       13.4618900322  W2        5059            0.0000000000
     13356      4452  TIP3      H2              1.2111994676       -9.8699948050       14.8212400322  W2        5059            0.0000000000
     13357      4453  TIP3      OH2            15.4045794676      -15.7961748050        3.8837400322  W2        5062            0.0000000000
     13358      4453  TIP3      H1             16.0151594676      -16.1674948050        4.5205600322  W2        5062            0.0000000000
     13359      4453  TIP3      H2             14.5677294676      -16.2174848050        4.0797400322  W2        5062            0.0000000000
     13360      4454  TIP3      OH2            15.0371494676      -14.2413348050        8.8497300322  W2        5063            0.0000000000
     13361      4454  TIP3      H1             15.3168594676      -15.1482948050        8.9739000322  W2        5063            0.0000000000
     13362      4454  TIP3      H2             15.7963194676      -13.8071848050        8.4606500322  W2        5063            0.0000000000
     13363      4455  TIP3      OH2            15.6489794676      -13.6595948050       14.2856200322  W2        5064            0.0000000000
     13364      4455  TIP3      H1             16.5817794676      -13.4476048050       14.2512200322  W2        5064            0.0000000000
     13365      4455  TIP3      H2             15.4137294676      -13.5583848050       15.2079200322  W2        5064            0.0000000000
     13366      4456  TIP3      OH2            15.6506294676      -16.9784048050        8.8979300322  W2        5068            0.0000000000
     13367      4456  TIP3      H1             15.8331294676      -17.4272548050        9.7234300322  W2        5068            0.0000000000
     13368      4456  TIP3      H2             15.0509194676      -17.5629648050        8.4343900322  W2        5068            0.0000000000
     13369      4457  TIP3      OH2             1.1806394676      -16.1630348050       13.4297700322  W2        5069            0.0000000000
     13370      4457  TIP3      H1              1.6257994676      -16.9547848050       13.7317400322  W2        5069            0.0000000000
     13371      4457  TIP3      H2              1.6469394676      -15.4465148050       13.8603300322  W2        5069            0.0000000000
     13372      4458  TIP3      OH2            -0.5153305324      -13.1637348050       14.4987900322  W2        5070            0.0000000000
     13373      4458  TIP3      H1             -0.0233505324      -13.3846848050       13.7079900322  W2        5070            0.0000000000
     13374      4458  TIP3      H2             -0.1532405324      -12.3233948050       14.7797400322  W2        5070            0.0000000000
     13375      4459  TIP3      OH2            17.5172494676      -16.9105948050        5.4259600322  W2        5072            0.0000000000
     13376      4459  TIP3      H1             17.9295094676      -17.6320248050        4.9507600322  W2        5072            0.0000000000
     13377      4459  TIP3      H2             18.1988994676      -16.2411348050        5.4843900322  W2        5072            0.0000000000
     13378      4460  TIP3      OH2            -0.2016805324      -16.9058248050        8.5530300322  W2        5073            0.0000000000
     13379      4460  TIP3      H1             -1.1268405324      -16.6971648050        8.4235800322  W2        5073            0.0000000000
     13380      4460  TIP3      H2              0.2523094676      -16.4217448050        7.8632600322  W2        5073            0.0000000000
     13381      4461  TIP3      OH2            14.5690394676       -1.9216548050       10.4987700322  W2        5074            0.0000000000
     13382      4461  TIP3      H1             15.2213294676       -2.2694448050        9.8906800322  W2        5074            0.0000000000
     13383      4461  TIP3      H2             15.0794194676       -1.4333348050       11.1447400322  W2        5074            0.0000000000
     13384      4462  TIP3      OH2             1.7245594676       -2.1387548050       14.2579700322  W2        5086            0.0000000000
     13385      4462  TIP3      H1              1.7061594676       -2.5642448050       15.1152000322  W2        5086            0.0000000000
     13386      4462  TIP3      H2              2.5293494676       -2.4572548050       13.8491900322  W2        5086            0.0000000000
     13387      4463  TIP3      OH2             3.8658694676       -3.4288848050       12.9129600322  W2        5087            0.0000000000
     13388      4463  TIP3      H1              3.6469394676       -4.3451448050       13.0825600322  W2        5087            0.0000000000
     13389      4463  TIP3      H2              4.6900894676       -3.2888448050       13.3791000322  W2        5087            0.0000000000
     13390      4464  TIP3      OH2             6.4031194676       -2.9589548050       13.7617600322  W2        5088            0.0000000000
     13391      4464  TIP3      H1              6.6156894676       -3.8470548050       13.4748500322  W2        5088            0.0000000000
     13392      4464  TIP3      H2              6.4676294676       -2.9931848050       14.7161600322  W2        5088            0.0000000000
     13393      4465  TIP3      OH2             9.9114894676      -17.2948948050       12.9060900322  W2        5089            0.0000000000
     13394      4465  TIP3      H1              9.2371694676      -17.9243348050       13.1616700322  W2        5089            0.0000000000
     13395      4465  TIP3      H2             10.4754094676      -17.7790048050       12.3028800322  W2        5089            0.0000000000
     13396      4466  TIP3      OH2            15.0542094676      -19.1874948050       13.0188000322  W2        5090            0.0000000000
     13397      4466  TIP3      H1             15.6579694676      -18.6399548050       12.5169000322  W2        5090            0.0000000000
     13398      4466  TIP3      H2             14.1844094676      -18.8684548050       12.7782100322  W2        5090            0.0000000000
     13399      4467  TIP3      OH2            16.7812494676      -18.0486248050       11.3518900322  W2        5091            0.0000000000
     13400      4467  TIP3      H1             17.3929994676      -18.5630548050       10.8252500322  W2        5091            0.0000000000
     13401      4467  TIP3      H2             17.1635894676      -17.1714148050       11.3753300322  W2        5091            0.0000000000
     13402      4468  TIP3      OH2             2.2382394676      -18.6608648050       10.7280800322  W2        5092            0.0000000000
     13403      4468  TIP3      H1              1.4612194676      -18.8953748050       10.2206700322  W2        5092            0.0000000000
     13404      4468  TIP3      H2              2.7685994676      -19.4576548050       10.7368800322  W2        5092            0.0000000000
     13405      4469  TIP3      OH2             1.0745794676      -18.8630548050        6.5316900322  W2        5093            0.0000000000
     13406      4469  TIP3      H1              1.5136494676      -18.2520048050        5.9400400322  W2        5093            0.0000000000
     13407      4469  TIP3      H2              0.4408194676      -18.3246448050        7.0056900322  W2        5093            0.0000000000
     13408      4470  TIP3      OH2             6.8174994676      -18.7341548050       10.5413900322  W2        5094            0.0000000000
     13409      4470  TIP3      H1              7.6918394676      -18.3457248050       10.5118200322  W2        5094            0.0000000000
     13410      4470  TIP3      H2              6.6815794676      -18.9493748050       11.4641100322  W2        5094            0.0000000000
     13411      4471  TIP3      OH2            12.3743394676      -18.7041748050       12.1905600322  W2        5095            0.0000000000
     13412      4471  TIP3      H1             12.4504994676      -18.6090148050       11.2411600322  W2        5095            0.0000000000
     13413      4471  TIP3      H2             12.0992594676      -19.6118848050       12.3194700322  W2        5095            0.0000000000
     13414      4472  TIP3      OH2            13.7275994676      -18.6783948050        7.8830600322  W2        5096            0.0000000000
     13415      4472  TIP3      H1             13.0247094676      -18.0634748050        7.6732000322  W2        5096            0.0000000000
     13416      4472  TIP3      H2             13.2827394676      -19.5157248050        8.0141500322  W2        5096            0.0000000000
     13417      4473  TIP3      OH2             0.9755294676       -2.9148348050        7.4292000322  W2        5097            0.0000000000
     13418      4473  TIP3      H1              0.2905194676       -2.9529448050        6.7617100322  W2        5097            0.0000000000
     13419      4473  TIP3      H2              0.9792494676       -2.0020748050        7.7174100322  W2        5097            0.0000000000
     13420      4474  TIP3      OH2             2.9354894676      -16.9469048050        4.9741000322  W2        5098            0.0000000000
     13421      4474  TIP3      H1              3.4268294676      -17.5766648050        4.4466500322  W2        5098            0.0000000000
     13422      4474  TIP3      H2              3.5591194676      -16.6509648050        5.6372200322  W2        5098            0.0000000000
     13423      4475  TIP3      OH2             7.9614994676      -16.6537548050        7.4311500322  W2        5099            0.0000000000
     13424      4475  TIP3      H1              8.1396294676      -17.3004348050        8.1140100322  W2        5099            0.0000000000
     13425      4475  TIP3      H2              7.9081194676      -15.8199848050        7.8982600322  W2        5099            0.0000000000
     13426      4476  TIP3      OH2             9.8398794676       -1.7053448050        5.8268200322  W2        5100            0.0000000000
     13427      4476  TIP3      H1             10.7058994676       -1.3386048050        5.6486400322  W2        5100            0.0000000000
     13428      4476  TIP3      H2              9.5931594676       -2.1445448050        5.0129000322  W2        5100            0.0000000000
     13429      4477  TIP3      OH2            16.5488394676       -2.1423148050        8.5059300322  W2        5101            0.0000000000
     13430      4477  TIP3      H1             16.3545494676       -2.8901048050        7.9408900322  W2        5101            0.0000000000
     13431      4477  TIP3      H2             16.5098494676       -1.3843048050        7.9227200322  W2        5101            0.0000000000
     13432      4478  TIP3      OH2             2.7936494676       -1.9947548050        4.4544100322  W2        5104            0.0000000000
     13433      4478  TIP3      H1              2.5261094676       -1.7084648050        5.3277200322  W2        5104            0.0000000000
     13434      4478  TIP3      H2              3.5649094676       -2.5408348050        4.6066600322  W2        5104            0.0000000000
     13435      4479  TIP3      OH2            30.1724994676       -9.5046348050       10.6868300322  W2        5107            0.0000000000
     13436      4479  TIP3      H1             30.2616094676       -8.5608148050       10.5545400322  W2        5107            0.0000000000
     13437      4479  TIP3      H2             29.5342594676       -9.7799948050       10.0287700322  W2        5107            0.0000000000
     13438      4480  TIP3      OH2            29.1056294676      -10.2495648050       14.1056500322  W2        5108            0.0000000000
     13439      4480  TIP3      H1             29.0673794676      -10.8959348050       14.8106100322  W2        5108            0.0000000000
     13440      4480  TIP3      H2             28.7832794676      -10.7161248050       13.3345200322  W2        5108            0.0000000000
     13441      4481  TIP3      OH2            32.8116494676       -7.3105248050       12.4071600322  W2        5110            0.0000000000
     13442      4481  TIP3      H1             32.3709194676       -8.0309248050       12.8577200322  W2        5110            0.0000000000
     13443      4481  TIP3      H2             32.7986194676       -6.5898048050       13.0369300322  W2        5110            0.0000000000
     13444      4482  TIP3      OH2            22.3974394676       -6.1854648050       14.2335500322  W2        5111            0.0000000000
     13445      4482  TIP3      H1             22.0279594676       -6.9874148050       13.8639800322  W2        5111            0.0000000000
     13446      4482  TIP3      H2             23.3385494676       -6.3539748050       14.2798900322  W2        5111            0.0000000000
     13447      4483  TIP3      OH2            19.0074894676      -12.5252048050        9.6264300322  W2        5112            0.0000000000
     13448      4483  TIP3      H1             18.5598294676      -11.6793348050        9.6080800322  W2        5112            0.0000000000
     13449      4483  TIP3      H2             18.4466094676      -13.1047848050        9.1109400322  W2        5112            0.0000000000
     13450      4484  TIP3      OH2            19.7180994676      -10.3632448050       11.7522300322  W2        5113            0.0000000000
     13451      4484  TIP3      H1             19.9314494676      -11.1330848050       12.2795300322  W2        5113            0.0000000000
     13452      4484  TIP3      H2             20.4558594676      -10.2735748050       11.1489900322  W2        5113            0.0000000000
     13453      4485  TIP3      OH2            29.9231994676       -2.2063548050       12.6192000322  W2        5114            0.0000000000
     13454      4485  TIP3      H1             30.5428394676       -2.8828848050       12.3461200322  W2        5114            0.0000000000
     13455      4485  TIP3      H2             29.7149394676       -2.4242748050       13.5276900322  W2        5114            0.0000000000
     13456      4486  TIP3      OH2            27.4950694676       -7.8174248050       14.5117500322  W2        5115            0.0000000000
     13457      4486  TIP3      H1             27.7988594676       -8.5032848050       13.9171600322  W2        5115            0.0000000000
     13458      4486  TIP3      H2             28.2164694676       -7.6985548050       15.1295500322  W2        5115            0.0000000000
     13459      4487  TIP3      OH2            30.6357694676      -13.4231848050       14.8392300322  W2        5117            0.0000000000
     13460      4487  TIP3      H1             30.7783594676      -14.3694848050       14.8593900322  W2        5117            0.0000000000
     13461      4487  TIP3      H2             30.5296694676      -13.2162048050       13.9107200322  W2        5117            0.0000000000
     13462      4488  TIP3      OH2            23.7905994676      -15.3215448050       12.1117100322  W2        5118            0.0000000000
     13463      4488  TIP3      H1             23.8337094676      -14.4616948050       11.6933400322  W2        5118            0.0000000000
     13464      4488  TIP3      H2             23.3330094676      -15.8740748050       11.4780300322  W2        5118            0.0000000000
     13465      4489  TIP3      OH2            31.5128694676      -15.1909848050       10.5125400322  W2        5119            0.0000000000
     13466      4489  TIP3      H1             32.1592994676      -15.5196648050       11.1373000322  W2        5119            0.0000000000
     13467      4489  TIP3      H2             32.0228094676      -14.6730848050        9.8896800322  W2        5119            0.0000000000
     13468      4490  TIP3      OH2            20.4107494676      -12.9249648050       12.8738500322  W2        5120            0.0000000000
     13469      4490  TIP3      H1             21.0644094676      -13.4747948050       13.3058600322  W2        5120            0.0000000000
     13470      4490  TIP3      H2             20.4346794676      -13.1990648050       11.9570500322  W2        5120            0.0000000000
     13471      4491  TIP3      OH2            25.5671994676      -11.3748348050       12.0890000322  W2        5121            0.0000000000
     13472      4491  TIP3      H1             26.1832994676      -11.9012948050       12.5984000322  W2        5121            0.0000000000
     13473      4491  TIP3      H2             24.9810794676      -12.0149648050       11.6853600322  W2        5121            0.0000000000
     13474      4492  TIP3      OH2            29.9697694676       -6.9035948050        9.7297000322  W2        5124            0.0000000000
     13475      4492  TIP3      H1             29.6742794676       -7.2263648050        8.8783900322  W2        5124            0.0000000000
     13476      4492  TIP3      H2             29.6455494676       -6.0039248050        9.7709600322  W2        5124            0.0000000000
     13477      4493  TIP3      OH2            33.2767094676      -15.9000548050       12.4931300322  W2        5126            0.0000000000
     13478      4493  TIP3      H1             33.0615094676      -16.6657148050       13.0257300322  W2        5126            0.0000000000
     13479      4493  TIP3      H2             33.9324494676      -15.4275948050       13.0059800322  W2        5126            0.0000000000
     13480      4494  TIP3      OH2            22.1945194676      -14.5115248050       14.1380100322  W2        5127            0.0000000000
     13481      4494  TIP3      H1             22.8081494676      -13.8787648050       14.5112500322  W2        5127            0.0000000000
     13482      4494  TIP3      H2             22.7065894676      -14.9840248050       13.4817000322  W2        5127            0.0000000000
     13483      4495  TIP3      OH2            19.6984494676       -7.0930448050        8.0422400322  W2        5129            0.0000000000
     13484      4495  TIP3      H1             19.4265394676       -6.8639448050        7.1535300322  W2        5129            0.0000000000
     13485      4495  TIP3      H2             19.7440194676       -6.2551648050        8.5027700322  W2        5129            0.0000000000
     13486      4496  TIP3      OH2            33.3234194676       -5.4714548050       14.7550900322  W2        5130            0.0000000000
     13487      4496  TIP3      H1             32.3817894676       -5.4130648050       14.9167800322  W2        5130            0.0000000000
     13488      4496  TIP3      H2             33.6000294676       -4.5654048050       14.6180600322  W2        5130            0.0000000000
     13489      4497  TIP3      OH2            26.6272594676      -19.0981948050       13.6382800322  W2        5132            0.0000000000
     13490      4497  TIP3      H1             26.5096794676      -20.0465948050       13.5841100322  W2        5132            0.0000000000
     13491      4497  TIP3      H2             25.7722694676      -18.7655848050       13.9113900322  W2        5132            0.0000000000
     13492      4498  TIP3      OH2            31.5755394676       -3.6901048050       11.3802500322  W2        5133            0.0000000000
     13493      4498  TIP3      H1             32.0007694676       -4.3973148050       10.8952100322  W2        5133            0.0000000000
     13494      4498  TIP3      H2             31.8925394676       -2.8888348050       10.9634700322  W2        5133            0.0000000000
     13495      4499  TIP3      OH2            32.7351894676       -5.7892548050        9.8889100322  W2        5134            0.0000000000
     13496      4499  TIP3      H1             32.4776694676       -6.4792448050        9.2775000322  W2        5134            0.0000000000
     13497      4499  TIP3      H2             32.8062694676       -6.2321348050       10.7345000322  W2        5134            0.0000000000
     13498      4500  TIP3      OH2            28.8937494676      -10.2606348050        8.1388600322  W2        5136            0.0000000000
     13499      4500  TIP3      H1             28.1822994676       -9.7256648050        7.7869100322  W2        5136            0.0000000000
     13500      4500  TIP3      H2             29.5847094676      -10.2054248050        7.4787500322  W2        5136            0.0000000000
     13501      4501  TIP3      OH2            28.9476694676      -11.8032048050        5.1773600322  W2        5137            0.0000000000
     13502      4501  TIP3      H1             29.6486594676      -11.7805148050        5.8287600322  W2        5137            0.0000000000
     13503      4501  TIP3      H2             29.2499594676      -12.4312348050        4.5212900322  W2        5137            0.0000000000
     13504      4502  TIP3      OH2            32.2995194676      -10.0513048050        9.0904500322  W2        5139            0.0000000000
     13505      4502  TIP3      H1             31.5676194676       -9.8229348050        9.6635100322  W2        5139            0.0000000000
     13506      4502  TIP3      H2             32.7467394676      -10.7650348050        9.5452000322  W2        5139            0.0000000000
     13507      4503  TIP3      OH2            23.9448894676       -9.4206848050       10.9729500322  W2        5141            0.0000000000
     13508      4503  TIP3      H1             23.6144094676       -9.7913448050       10.1546500322  W2        5141            0.0000000000
     13509      4503  TIP3      H2             24.5332994676      -10.0912848050       11.3197800322  W2        5141            0.0000000000
     13510      4504  TIP3      OH2            25.3116394676       -5.9926248050       13.6541700322  W2        5142            0.0000000000
     13511      4504  TIP3      H1             25.2167694676       -6.5713148050       12.8976300322  W2        5142            0.0000000000
     13512      4504  TIP3      H2             26.0409994676       -6.3640548050       14.1504500322  W2        5142            0.0000000000
     13513      4505  TIP3      OH2            24.3114394676      -10.6521248050       14.6064500322  W2        5143            0.0000000000
     13514      4505  TIP3      H1             24.8766894676      -10.5307048050       13.8435700322  W2        5143            0.0000000000
     13515      4505  TIP3      H2             24.6303294676      -10.0146248050       15.2453000322  W2        5143            0.0000000000
     13516      4506  TIP3      OH2            31.1704694676      -10.8890148050        6.7755700322  W2        5146            0.0000000000
     13517      4506  TIP3      H1             31.7500194676      -10.7389848050        7.5224600322  W2        5146            0.0000000000
     13518      4506  TIP3      H2             31.5844694676      -10.4182748050        6.0522100322  W2        5146            0.0000000000
     13519      4507  TIP3      OH2            28.8969594676       -4.1521648050       10.2108800322  W2        5148            0.0000000000
     13520      4507  TIP3      H1             29.3707194676       -3.8565348050       10.9883000322  W2        5148            0.0000000000
     13521      4507  TIP3      H2             28.3338894676       -3.4140048050        9.9778400322  W2        5148            0.0000000000
     13522      4508  TIP3      OH2            34.8693094676      -19.1389748050        6.5885400322  W2        5150            0.0000000000
     13523      4508  TIP3      H1             33.9693794676      -19.0000748050        6.8836000322  W2        5150            0.0000000000
     13524      4508  TIP3      H2             35.1211494676      -18.3075148050        6.1867100322  W2        5150            0.0000000000
     13525      4509  TIP3      OH2            22.9351594676      -10.3512548050        8.5622300322  W2        5151            0.0000000000
     13526      4509  TIP3      H1             22.6432894676       -9.5830848050        8.0713600322  W2        5151            0.0000000000
     13527      4509  TIP3      H2             22.2606794676      -11.0106348050        8.3993700322  W2        5151            0.0000000000
     13528      4510  TIP3      OH2            36.0584494676       -4.7727348050        4.9649300322  W2        5152            0.0000000000
     13529      4510  TIP3      H1             36.1317994676       -3.8337148050        5.1354600322  W2        5152            0.0000000000
     13530      4510  TIP3      H2             36.9639594676       -5.0778748050        4.9086600322  W2        5152            0.0000000000
     13531      4511  TIP3      OH2            18.7784394676       -5.2079548050       14.2612300322  W2        5154            0.0000000000
     13532      4511  TIP3      H1             19.7244994676       -5.3522548050       14.2421800322  W2        5154            0.0000000000
     13533      4511  TIP3      H2             18.6660694676       -4.4236748050       14.7983500322  W2        5154            0.0000000000
     13534      4512  TIP3      OH2            28.3692694676       -1.1956948050        8.6258000322  W2        5157            0.0000000000
     13535      4512  TIP3      H1             28.2938694676       -1.3169748050        7.6793200322  W2        5157            0.0000000000
     13536      4512  TIP3      H2             28.4021394676       -0.2464248050        8.7442600322  W2        5157            0.0000000000
     13537      4513  TIP3      OH2            22.0226494676       -2.4069948050       10.4067000322  W2        5158            0.0000000000
     13538      4513  TIP3      H1             22.1746894676       -2.7549548050       11.2853500322  W2        5158            0.0000000000
     13539      4513  TIP3      H2             21.1716894676       -2.7632648050       10.1514200322  W2        5158            0.0000000000
     13540      4514  TIP3      OH2            31.4708694676       -2.0416748050        5.6280400322  W2        5159            0.0000000000
     13541      4514  TIP3      H1             31.8457094676       -2.7860648050        5.1573000322  W2        5159            0.0000000000
     13542      4514  TIP3      H2             31.4752394676       -2.3116148050        6.5463700322  W2        5159            0.0000000000
     13543      4515  TIP3      OH2            31.1396794676       -2.1159648050        8.3772600322  W2        5160            0.0000000000
     13544      4515  TIP3      H1             30.2046594676       -2.0157748050        8.5559600322  W2        5160            0.0000000000
     13545      4515  TIP3      H2             31.4198694676       -2.8253648050        8.9555800322  W2        5160            0.0000000000
     13546      4516  TIP3      OH2            23.8960194676      -18.1947448050       14.4159100322  W2        5163            0.0000000000
     13547      4516  TIP3      H1             23.0343894676      -18.2819248050       14.0082000322  W2        5163            0.0000000000
     13548      4516  TIP3      H2             23.8735894676      -17.3387348050       14.8436700322  W2        5163            0.0000000000
     13549      4517  TIP3      OH2            32.6477794676       -9.8561848050        4.4053600322  W2        5166            0.0000000000
     13550      4517  TIP3      H1             32.6898594676      -10.0787948050        3.4753600322  W2        5166            0.0000000000
     13551      4517  TIP3      H2             33.4969894676       -9.4574748050        4.5953500322  W2        5166            0.0000000000
     13552      4518  TIP3      OH2            28.2205294676      -15.9803648050        5.0756900322  W2        5167            0.0000000000
     13553      4518  TIP3      H1             27.9670094676      -15.9612048050        5.9985000322  W2        5167            0.0000000000
     13554      4518  TIP3      H2             27.9637394676      -16.8518248050        4.7743100322  W2        5167            0.0000000000
     13555      4519  TIP3      OH2            23.9839394676      -13.0082848050       10.4229300322  W2        5169            0.0000000000
     13556      4519  TIP3      H1             23.0912294676      -13.3486748050       10.3643100322  W2        5169            0.0000000000
     13557      4519  TIP3      H2             24.4345994676      -13.3851948050        9.6672500322  W2        5169            0.0000000000
     13558      4520  TIP3      OH2            29.5194894676      -12.5922548050        9.2400100322  W2        5170            0.0000000000
     13559      4520  TIP3      H1             29.1105194676      -11.7773948050        8.9484900322  W2        5170            0.0000000000
     13560      4520  TIP3      H2             30.2401094676      -12.7322448050        8.6257200322  W2        5170            0.0000000000
     13561      4521  TIP3      OH2            30.5242594676      -13.1462148050       12.0539800322  W2        5172            0.0000000000
     13562      4521  TIP3      H1             30.3287094676      -12.5405348050       11.3390400322  W2        5172            0.0000000000
     13563      4521  TIP3      H2             30.7055194676      -13.9796948050       11.6196100322  W2        5172            0.0000000000
     13564      4522  TIP3      OH2            25.1028194676      -15.5347148050        4.1767300322  W2        5174            0.0000000000
     13565      4522  TIP3      H1             24.6718894676      -15.9797048050        4.9064700322  W2        5174            0.0000000000
     13566      4522  TIP3      H2             24.3846894676      -15.1630848050        3.6644800322  W2        5174            0.0000000000
     13567      4523  TIP3      OH2            18.3451594676      -15.7927648050       11.2286000322  W2        5175            0.0000000000
     13568      4523  TIP3      H1             18.9759294676      -15.8215548050       11.9479900322  W2        5175            0.0000000000
     13569      4523  TIP3      H2             18.7945894676      -16.2178948050       10.4981900322  W2        5175            0.0000000000
     13570      4524  TIP3      OH2            19.6193694676      -15.0465648050        6.6526400322  W2        5176            0.0000000000
     13571      4524  TIP3      H1             20.0935394676      -14.4555748050        6.0677300322  W2        5176            0.0000000000
     13572      4524  TIP3      H2             18.9020094676      -14.5162748050        6.9996500322  W2        5176            0.0000000000
     13573      4525  TIP3      OH2            26.5654694676      -15.5805348050       11.5093400322  W2        5178            0.0000000000
     13574      4525  TIP3      H1             25.6545794676      -15.5238548050       11.7979400322  W2        5178            0.0000000000
     13575      4525  TIP3      H2             27.0707594676      -15.6409848050       12.3200600322  W2        5178            0.0000000000
     13576      4526  TIP3      OH2            21.3938094676      -13.9519048050       10.3361000322  W2        5179            0.0000000000
     13577      4526  TIP3      H1             20.5046094676      -13.8523548050        9.9960600322  W2        5179            0.0000000000
     13578      4526  TIP3      H2             21.6902994676      -14.7936048050        9.9898900322  W2        5179            0.0000000000
     13579      4527  TIP3      OH2            25.0469894676      -13.9516448050        7.9925600322  W2        5180            0.0000000000
     13580      4527  TIP3      H1             25.9785394676      -13.8226448050        8.1708700322  W2        5180            0.0000000000
     13581      4527  TIP3      H2             24.8320194676      -13.2822148050        7.3430300322  W2        5180            0.0000000000
     13582      4528  TIP3      OH2            30.9706594676      -16.3459048050       14.7735200322  W2        5181            0.0000000000
     13583      4528  TIP3      H1             30.2938194676      -16.2145948050       15.4374900322  W2        5181            0.0000000000
     13584      4528  TIP3      H2             30.4851494676      -16.5009548050       13.9632900322  W2        5181            0.0000000000
     13585      4529  TIP3      OH2            23.7210094676      -12.7574248050        5.5591700322  W2        5182            0.0000000000
     13586      4529  TIP3      H1             23.1785194676      -13.1370448050        4.8679300322  W2        5182            0.0000000000
     13587      4529  TIP3      H2             24.5544994676      -12.5629548050        5.1305800322  W2        5182            0.0000000000
     13588      4530  TIP3      OH2            27.8854394676      -12.7932348050       13.3963000322  W2        5185            0.0000000000
     13589      4530  TIP3      H1             28.4497794676      -13.3395748050       12.8492600322  W2        5185            0.0000000000
     13590      4530  TIP3      H2             27.7377794676      -13.3150448050       14.1850600322  W2        5185            0.0000000000
     13591      4531  TIP3      OH2            22.8874094676      -16.6566248050        9.8147800322  W2        5186            0.0000000000
     13592      4531  TIP3      H1             22.5703594676      -17.5590948050        9.7793200322  W2        5186            0.0000000000
     13593      4531  TIP3      H2             23.6688194676      -16.6548848050        9.2619400322  W2        5186            0.0000000000
     13594      4532  TIP3      OH2            27.0562894676       -8.1918548050        7.4949800322  W2        5188            0.0000000000
     13595      4532  TIP3      H1             26.3113894676       -8.6993248050        7.1727700322  W2        5188            0.0000000000
     13596      4532  TIP3      H2             26.9220094676       -8.1430548050        8.4414600322  W2        5188            0.0000000000
     13597      4533  TIP3      OH2            30.9539694676      -15.3778648050        5.6942400322  W2        5190            0.0000000000
     13598      4533  TIP3      H1             30.0153894676      -15.2663048050        5.5431200322  W2        5190            0.0000000000
     13599      4533  TIP3      H2             31.2511794676      -14.5211748050        6.0008100322  W2        5190            0.0000000000
     13600      4534  TIP3      OH2            31.6723194676      -13.5105948050        7.3549800322  W2        5192            0.0000000000
     13601      4534  TIP3      H1             32.5642194676      -13.6480948050        7.6741000322  W2        5192            0.0000000000
     13602      4534  TIP3      H2             31.7286794676      -12.7199848050        6.8183300322  W2        5192            0.0000000000
     13603      4535  TIP3      OH2            22.1811194676       -8.8968548050       13.2647700322  W2        5193            0.0000000000
     13604      4535  TIP3      H1             22.9258394676       -8.8992848050       12.6634200322  W2        5193            0.0000000000
     13605      4535  TIP3      H2             22.2587794676       -9.7204748050       13.7462800322  W2        5193            0.0000000000
     13606      4536  TIP3      OH2            29.1816994676       -6.7334248050        6.5204400322  W2        5194            0.0000000000
     13607      4536  TIP3      H1             28.8865394676       -5.9066348050        6.9019200322  W2        5194            0.0000000000
     13608      4536  TIP3      H2             28.4786994676       -7.3527348050        6.7165800322  W2        5194            0.0000000000
     13609      4537  TIP3      OH2            36.5571894676      -13.3011848050        7.0496500322  W2        5198            0.0000000000
     13610      4537  TIP3      H1             36.0028194676      -13.6973848050        6.3774000322  W2        5198            0.0000000000
     13611      4537  TIP3      H2             36.6575494676      -12.3906648050        6.7719800322  W2        5198            0.0000000000
     13612      4538  TIP3      OH2            34.8523594676       -4.5151448050        7.5148600322  W2        5200            0.0000000000
     13613      4538  TIP3      H1             34.4794694676       -5.3407648050        7.8239200322  W2        5200            0.0000000000
     13614      4538  TIP3      H2             35.1297094676       -4.6982048050        6.6172000322  W2        5200            0.0000000000
     13615      4539  TIP3      OH2            32.0127494676       -9.7071948050       14.5360500322  W2        5201            0.0000000000
     13616      4539  TIP3      H1             31.0844394676       -9.9390048050       14.5089800322  W2        5201            0.0000000000
     13617      4539  TIP3      H2             32.4638594676      -10.4842148050       14.2059300322  W2        5201            0.0000000000
     13618      4540  TIP3      OH2            24.5560594676       -5.3790348050       10.6689200322  W2        5202            0.0000000000
     13619      4540  TIP3      H1             25.0832794676       -4.6055948050       10.4688000322  W2        5202            0.0000000000
     13620      4540  TIP3      H2             23.6759094676       -5.1541148050       10.3673200322  W2        5202            0.0000000000
     13621      4541  TIP3      OH2            20.3108294676      -10.5166248050        5.2561600322  W2        5203            0.0000000000
     13622      4541  TIP3      H1             20.9268194676       -9.8899048050        5.6356400322  W2        5203            0.0000000000
     13623      4541  TIP3      H2             19.4490894676      -10.2006448050        5.5278100322  W2        5203            0.0000000000
     13624      4542  TIP3      OH2            25.9832894676       -7.7160448050       10.2453500322  W2        5204            0.0000000000
     13625      4542  TIP3      H1             25.7422894676       -6.7906048050       10.2868800322  W2        5204            0.0000000000
     13626      4542  TIP3      H2             25.2426494676       -8.1749148050       10.6417400322  W2        5204            0.0000000000
     13627      4543  TIP3      OH2            24.6663694676       -2.6942848050        9.7905700322  W2        5206            0.0000000000
     13628      4543  TIP3      H1             23.7164194676       -2.5885448050        9.8419000322  W2        5206            0.0000000000
     13629      4543  TIP3      H2             25.0181794676       -1.8735448050       10.1353200322  W2        5206            0.0000000000
     13630      4544  TIP3      OH2            32.2449194676       -6.5385648050        5.3349200322  W2        5208            0.0000000000
     13631      4544  TIP3      H1             32.5982294676       -6.9185848050        6.1392700322  W2        5208            0.0000000000
     13632      4544  TIP3      H2             31.2962694676       -6.6320848050        5.4218500322  W2        5208            0.0000000000
     13633      4545  TIP3      OH2            36.7483594676       -2.0593148050        5.5359400322  W2        5210            0.0000000000
     13634      4545  TIP3      H1             37.4921494676       -1.4732648050        5.3961000322  W2        5210            0.0000000000
     13635      4545  TIP3      H2             36.0541694676       -1.4907348050        5.8691800322  W2        5210            0.0000000000
     13636      4546  TIP3      OH2            33.1108494676       -7.8663648050        7.5617100322  W2        5212            0.0000000000
     13637      4546  TIP3      H1             32.8336094676       -8.5944348050        8.1178200322  W2        5212            0.0000000000
     13638      4546  TIP3      H2             34.0381494676       -7.7471648050        7.7669700322  W2        5212            0.0000000000
     13639      4547  TIP3      OH2            26.3356994676       -5.4269548050        3.7819200322  W2        5214            0.0000000000
     13640      4547  TIP3      H1             26.5746794676       -6.1751448050        3.2348100322  W2        5214            0.0000000000
     13641      4547  TIP3      H2             26.0668294676       -5.8147848050        4.6147000322  W2        5214            0.0000000000
     13642      4548  TIP3      OH2            25.2727594676       -5.8565748050        6.2381800322  W2        5215            0.0000000000
     13643      4548  TIP3      H1             25.4195594676       -6.3765948050        7.0282700322  W2        5215            0.0000000000
     13644      4548  TIP3      H2             25.2699294676       -4.9498148050        6.5447700322  W2        5215            0.0000000000
     13645      4549  TIP3      OH2            21.7258694676       -8.6042448050        6.7487200322  W2        5216            0.0000000000
     13646      4549  TIP3      H1             21.0397994676       -8.2519948050        7.3156900322  W2        5216            0.0000000000
     13647      4549  TIP3      H2             22.2486594676       -7.8412848050        6.5021500322  W2        5216            0.0000000000
     13648      4550  TIP3      OH2            30.3418694676      -16.2896948050        8.1248500322  W2        5218            0.0000000000
     13649      4550  TIP3      H1             30.5616994676      -15.8181548050        7.3213900322  W2        5218            0.0000000000
     13650      4550  TIP3      H2             30.9002694676      -15.8954348050        8.7949100322  W2        5218            0.0000000000
     13651      4551  TIP3      OH2            28.0104794676       -4.1592148050        6.9876000322  W2        5219            0.0000000000
     13652      4551  TIP3      H1             27.1940894676       -3.6622448050        7.0400300322  W2        5219            0.0000000000
     13653      4551  TIP3      H2             28.5401094676       -3.6838648050        6.3474800322  W2        5219            0.0000000000
     13654      4552  TIP3      OH2            27.5418594676      -14.5618148050        8.9596900322  W2        5220            0.0000000000
     13655      4552  TIP3      H1             28.3541194676      -14.0574948050        9.0058600322  W2        5220            0.0000000000
     13656      4552  TIP3      H2             27.2971594676      -14.7068448050        9.8736500322  W2        5220            0.0000000000
     13657      4553  TIP3      OH2            28.4255294676      -17.4805148050        9.8978000322  W2        5222            0.0000000000
     13658      4553  TIP3      H1             28.0788794676      -16.8634548050       10.5422300322  W2        5222            0.0000000000
     13659      4553  TIP3      H2             29.0842194676      -16.9799448050        9.4163500322  W2        5222            0.0000000000
     13660      4554  TIP3      OH2            25.3487894676       -3.1154948050        6.9692900322  W2        5223            0.0000000000
     13661      4554  TIP3      H1             25.5096594676       -2.3157448050        6.4685500322  W2        5223            0.0000000000
     13662      4554  TIP3      H2             25.1515694676       -2.8088948050        7.8543500322  W2        5223            0.0000000000
     13663      4555  TIP3      OH2            24.0832294676      -16.4175748050        6.5850500322  W2        5224            0.0000000000
     13664      4555  TIP3      H1             23.9997094676      -15.5292648050        6.9316900322  W2        5224            0.0000000000
     13665      4555  TIP3      H2             24.9732594676      -16.6829048050        6.8167300322  W2        5224            0.0000000000
     13666      4556  TIP3      OH2            32.8841794676      -11.9184148050       13.0750500322  W2        5226            0.0000000000
     13667      4556  TIP3      H1             32.0866194676      -12.3333948050       12.7465500322  W2        5226            0.0000000000
     13668      4556  TIP3      H2             33.3292894676      -12.6090448050       13.5661000322  W2        5226            0.0000000000
     13669      4557  TIP3      OH2            22.3417594676       -5.9903548050        5.6455000322  W2        5227            0.0000000000
     13670      4557  TIP3      H1             22.9339094676       -5.2908748050        5.9217400322  W2        5227            0.0000000000
     13671      4557  TIP3      H2             22.8010594676       -6.4234048050        4.9259600322  W2        5227            0.0000000000
     13672      4558  TIP3      OH2            20.6576794676      -13.3260548050        4.7614400322  W2        5228            0.0000000000
     13673      4558  TIP3      H1             20.6129394676      -12.3867448050        4.9401400322  W2        5228            0.0000000000
     13674      4558  TIP3      H2             19.7699994676      -13.5615648050        4.4916500322  W2        5228            0.0000000000
     13675      4559  TIP3      OH2            33.9706394676       -2.6621648050       14.6974000322  W2        5229            0.0000000000
     13676      4559  TIP3      H1             33.8150694676       -1.9837248050       14.0403300322  W2        5229            0.0000000000
     13677      4559  TIP3      H2             34.9032794676       -2.5902348050       14.9004600322  W2        5229            0.0000000000
     13678      4560  TIP3      OH2            21.4658794676      -18.5443948050       13.4345400322  W2        5230            0.0000000000
     13679      4560  TIP3      H1             21.2368594676      -18.4851448050       12.5070400322  W2        5230            0.0000000000
     13680      4560  TIP3      H2             21.0232194676      -19.3358448050       13.7409500322  W2        5230            0.0000000000
     13681      4561  TIP3      OH2            20.3962094676       -4.6036848050        9.5951200322  W2        5231            0.0000000000
     13682      4561  TIP3      H1             19.5640694676       -4.1314148050        9.6222600322  W2        5231            0.0000000000
     13683      4561  TIP3      H2             20.9420394676       -4.0939248050        8.9964300322  W2        5231            0.0000000000
     13684      4562  TIP3      OH2            28.3738794676       -3.5638148050        3.9205200322  W2        5234            0.0000000000
     13685      4562  TIP3      H1             27.7299794676       -4.1949548050        4.2418900322  W2        5234            0.0000000000
     13686      4562  TIP3      H2             29.1357094676       -4.0950148050        3.6888700322  W2        5234            0.0000000000
     13687      4563  TIP3      OH2            32.9781694676       -3.7468248050        4.1543200322  W2        5236            0.0000000000
     13688      4563  TIP3      H1             33.2612094676       -4.5413048050        4.6070100322  W2        5236            0.0000000000
     13689      4563  TIP3      H2             33.7179594676       -3.5137248050        3.5934300322  W2        5236            0.0000000000
     13690      4564  TIP3      OH2            23.9328994676       -7.8373348050        4.0118100322  W2        5238            0.0000000000
     13691      4564  TIP3      H1             23.9973094676       -8.6313748050        4.5424500322  W2        5238            0.0000000000
     13692      4564  TIP3      H2             24.5858194676       -7.9560548050        3.3220100322  W2        5238            0.0000000000
     13693      4565  TIP3      OH2            29.2852394676       -6.7901648050        3.7476100322  W2        5240            0.0000000000
     13694      4565  TIP3      H1             29.0166494676       -6.6099548050        4.6485000322  W2        5240            0.0000000000
     13695      4565  TIP3      H2             29.0787994676       -7.7155448050        3.6161900322  W2        5240            0.0000000000
     13696      4566  TIP3      OH2            25.0822794676       -9.8647148050        6.3176100322  W2        5243            0.0000000000
     13697      4566  TIP3      H1             24.6224794676      -10.3488848050        7.0034600322  W2        5243            0.0000000000
     13698      4566  TIP3      H2             25.3371494676      -10.5331748050        5.6816600322  W2        5243            0.0000000000
     13699      4567  TIP3      OH2            26.1533194676      -11.6215348050        4.5799300322  W2        5245            0.0000000000
     13700      4567  TIP3      H1             25.9728194676      -11.7764148050        3.6527600322  W2        5245            0.0000000000
     13701      4567  TIP3      H2             27.1033694676      -11.5136648050        4.6247200322  W2        5245            0.0000000000
     13702      4568  TIP3      OH2            35.5431494676       -9.2671148050        4.0257400322  W2        5247            0.0000000000
     13703      4568  TIP3      H1             35.2696294676       -9.6915648050        3.2125700322  W2        5247            0.0000000000
     13704      4568  TIP3      H2             35.5825594676       -8.3356648050        3.8087800322  W2        5247            0.0000000000
     13705      4569  TIP3      OH2            26.0504894676       -0.9311648050        5.5812900322  W2        5261            0.0000000000
     13706      4569  TIP3      H1             26.9835594676       -0.7732948050        5.7251300322  W2        5261            0.0000000000
     13707      4569  TIP3      H2             25.7863694676       -0.2558648050        4.9564400322  W2        5261            0.0000000000
     13708      4570  TIP3      OH2            19.6189794676       -6.2947848050        5.0641000322  W2        5262            0.0000000000
     13709      4570  TIP3      H1             20.5328994676       -6.2158948050        5.3374900322  W2        5262            0.0000000000
     13710      4570  TIP3      H2             19.6262894676       -6.9818248050        4.3976600322  W2        5262            0.0000000000
     13711      4571  TIP3      OH2            18.2680394676       -0.9019348050       10.1414900322  W2        5263            0.0000000000
     13712      4571  TIP3      H1             17.6207494676       -1.3637648050        9.6086100322  W2        5263            0.0000000000
     13713      4571  TIP3      H2             18.6224994676       -1.5736048050       10.7241100322  W2        5263            0.0000000000
     13714      4572  TIP3      OH2            19.1379594676       -2.8212348050       11.9461100322  W2        5264            0.0000000000
     13715      4572  TIP3      H1             18.8036394676       -3.7015048050       12.1181300322  W2        5264            0.0000000000
     13716      4572  TIP3      H2             19.3601994676       -2.4757348050       12.8106700322  W2        5264            0.0000000000
     13717      4573  TIP3      OH2            36.0014294676       -8.3983048050        8.0007800322  W2        5268            0.0000000000
     13718      4573  TIP3      H1             36.8515694676       -7.9772148050        8.1279400322  W2        5268            0.0000000000
     13719      4573  TIP3      H2             36.0069394676       -9.1382948050        8.6079200322  W2        5268            0.0000000000
     13720      4574  TIP3      OH2            36.3959894676      -10.3445648050        9.8243500322  W2        5269            0.0000000000
     13721      4574  TIP3      H1             35.6694494676      -10.8243048050       10.2221100322  W2        5269            0.0000000000
     13722      4574  TIP3      H2             36.9773194676      -10.1390948050       10.5565100322  W2        5269            0.0000000000
     13723      4575  TIP3      OH2            36.1551094676       -7.5598148050       14.7721100322  W2        5270            0.0000000000
     13724      4575  TIP3      H1             36.9885294676       -7.9378148050       14.4914700322  W2        5270            0.0000000000
     13725      4575  TIP3      H2             36.2671394676       -6.6166948050       14.6530200322  W2        5270            0.0000000000
     13726      4576  TIP3      OH2            36.6642994676      -10.4437148050        6.2154800322  W2        5272            0.0000000000
     13727      4576  TIP3      H1             36.1424094676      -10.0873048050        5.4965700322  W2        5272            0.0000000000
     13728      4576  TIP3      H2             36.6312194676       -9.7689348050        6.8935700322  W2        5272            0.0000000000
     13729      4577  TIP3      OH2            35.0131994676      -13.2041548050        4.7661900322  W2        5273            0.0000000000
     13730      4577  TIP3      H1             35.1096394676      -12.5374548050        4.0861600322  W2        5273            0.0000000000
     13731      4577  TIP3      H2             34.8731594676      -14.0195248050        4.2847400322  W2        5273            0.0000000000
     13732      4578  TIP3      OH2            34.1826694676      -11.8239148050       10.3872200322  W2        5274            0.0000000000
     13733      4578  TIP3      H1             34.0325494676      -12.7690548050       10.3670000322  W2        5274            0.0000000000
     13734      4578  TIP3      H2             33.8291194676      -11.5427748050       11.2311300322  W2        5274            0.0000000000
     13735      4579  TIP3      OH2            19.2179094676       -9.7456948050       14.3976000322  W2        5275            0.0000000000
     13736      4579  TIP3      H1             19.4021994676       -9.8275248050       13.4618900322  W2        5275            0.0000000000
     13737      4579  TIP3      H2             20.0671994676       -9.8699948050       14.8212400322  W2        5275            0.0000000000
     13738      4580  TIP3      OH2            34.2605794676      -15.7961748050        3.8837400322  W2        5278            0.0000000000
     13739      4580  TIP3      H1             34.8711594676      -16.1674948050        4.5205600322  W2        5278            0.0000000000
     13740      4580  TIP3      H2             33.4237294676      -16.2174848050        4.0797400322  W2        5278            0.0000000000
     13741      4581  TIP3      OH2            33.8931494676      -14.2413348050        8.8497300322  W2        5279            0.0000000000
     13742      4581  TIP3      H1             34.1728594676      -15.1482948050        8.9739000322  W2        5279            0.0000000000
     13743      4581  TIP3      H2             34.6523194676      -13.8071848050        8.4606500322  W2        5279            0.0000000000
     13744      4582  TIP3      OH2            34.5049794676      -13.6595948050       14.2856200322  W2        5280            0.0000000000
     13745      4582  TIP3      H1             35.4377794676      -13.4476048050       14.2512200322  W2        5280            0.0000000000
     13746      4582  TIP3      H2             34.2697294676      -13.5583848050       15.2079200322  W2        5280            0.0000000000
     13747      4583  TIP3      OH2            34.5066294676      -16.9784048050        8.8979300322  W2        5284            0.0000000000
     13748      4583  TIP3      H1             34.6891294676      -17.4272548050        9.7234300322  W2        5284            0.0000000000
     13749      4583  TIP3      H2             33.9069194676      -17.5629648050        8.4343900322  W2        5284            0.0000000000
     13750      4584  TIP3      OH2            20.0366394676      -16.1630348050       13.4297700322  W2        5285            0.0000000000
     13751      4584  TIP3      H1             20.4817994676      -16.9547848050       13.7317400322  W2        5285            0.0000000000
     13752      4584  TIP3      H2             20.5029394676      -15.4465148050       13.8603300322  W2        5285            0.0000000000
     13753      4585  TIP3      OH2            18.3406694676      -13.1637348050       14.4987900322  W2        5286            0.0000000000
     13754      4585  TIP3      H1             18.8326494676      -13.3846848050       13.7079900322  W2        5286            0.0000000000
     13755      4585  TIP3      H2             18.7027594676      -12.3233948050       14.7797400322  W2        5286            0.0000000000
     13756      4586  TIP3      OH2            36.3732494676      -16.9105948050        5.4259600322  W2        5288            0.0000000000
     13757      4586  TIP3      H1             36.7855094676      -17.6320248050        4.9507600322  W2        5288            0.0000000000
     13758      4586  TIP3      H2             37.0548994676      -16.2411348050        5.4843900322  W2        5288            0.0000000000
     13759      4587  TIP3      OH2            18.6543194676      -16.9058248050        8.5530300322  W2        5289            0.0000000000
     13760      4587  TIP3      H1             17.7291594676      -16.6971648050        8.4235800322  W2        5289            0.0000000000
     13761      4587  TIP3      H2             19.1083094676      -16.4217448050        7.8632600322  W2        5289            0.0000000000
     13762      4588  TIP3      OH2            33.4250394676       -1.9216548050       10.4987700322  W2        5290            0.0000000000
     13763      4588  TIP3      H1             34.0773294676       -2.2694448050        9.8906800322  W2        5290            0.0000000000
     13764      4588  TIP3      H2             33.9354194676       -1.4333348050       11.1447400322  W2        5290            0.0000000000
     13765      4589  TIP3      OH2            20.5805594676       -2.1387548050       14.2579700322  W2        5302            0.0000000000
     13766      4589  TIP3      H1             20.5621594676       -2.5642448050       15.1152000322  W2        5302            0.0000000000
     13767      4589  TIP3      H2             21.3853494676       -2.4572548050       13.8491900322  W2        5302            0.0000000000
     13768      4590  TIP3      OH2            22.7218694676       -3.4288848050       12.9129600322  W2        5303            0.0000000000
     13769      4590  TIP3      H1             22.5029394676       -4.3451448050       13.0825600322  W2        5303            0.0000000000
     13770      4590  TIP3      H2             23.5460894676       -3.2888448050       13.3791000322  W2        5303            0.0000000000
     13771      4591  TIP3      OH2            25.2591194676       -2.9589548050       13.7617600322  W2        5304            0.0000000000
     13772      4591  TIP3      H1             25.4716894676       -3.8470548050       13.4748500322  W2        5304            0.0000000000
     13773      4591  TIP3      H2             25.3236294676       -2.9931848050       14.7161600322  W2        5304            0.0000000000
     13774      4592  TIP3      OH2            28.7674894676      -17.2948948050       12.9060900322  W2        5305            0.0000000000
     13775      4592  TIP3      H1             28.0931694676      -17.9243348050       13.1616700322  W2        5305            0.0000000000
     13776      4592  TIP3      H2             29.3314094676      -17.7790048050       12.3028800322  W2        5305            0.0000000000
     13777      4593  TIP3      OH2            33.9102094676      -19.1874948050       13.0188000322  W2        5306            0.0000000000
     13778      4593  TIP3      H1             34.5139694676      -18.6399548050       12.5169000322  W2        5306            0.0000000000
     13779      4593  TIP3      H2             33.0404094676      -18.8684548050       12.7782100322  W2        5306            0.0000000000
     13780      4594  TIP3      OH2            35.6372494676      -18.0486248050       11.3518900322  W2        5307            0.0000000000
     13781      4594  TIP3      H1             36.2489994676      -18.5630548050       10.8252500322  W2        5307            0.0000000000
     13782      4594  TIP3      H2             36.0195894676      -17.1714148050       11.3753300322  W2        5307            0.0000000000
     13783      4595  TIP3      OH2            21.0942394676      -18.6608648050       10.7280800322  W2        5308            0.0000000000
     13784      4595  TIP3      H1             20.3172194676      -18.8953748050       10.2206700322  W2        5308            0.0000000000
     13785      4595  TIP3      H2             21.6245994676      -19.4576548050       10.7368800322  W2        5308            0.0000000000
     13786      4596  TIP3      OH2            19.9305794676      -18.8630548050        6.5316900322  W2        5309            0.0000000000
     13787      4596  TIP3      H1             20.3696494676      -18.2520048050        5.9400400322  W2        5309            0.0000000000
     13788      4596  TIP3      H2             19.2968194676      -18.3246448050        7.0056900322  W2        5309            0.0000000000
     13789      4597  TIP3      OH2            25.6734994676      -18.7341548050       10.5413900322  W2        5310            0.0000000000
     13790      4597  TIP3      H1             26.5478394676      -18.3457248050       10.5118200322  W2        5310            0.0000000000
     13791      4597  TIP3      H2             25.5375794676      -18.9493748050       11.4641100322  W2        5310            0.0000000000
     13792      4598  TIP3      OH2            31.2303394676      -18.7041748050       12.1905600322  W2        5311            0.0000000000
     13793      4598  TIP3      H1             31.3064994676      -18.6090148050       11.2411600322  W2        5311            0.0000000000
     13794      4598  TIP3      H2             30.9552594676      -19.6118848050       12.3194700322  W2        5311            0.0000000000
     13795      4599  TIP3      OH2            32.5835994676      -18.6783948050        7.8830600322  W2        5312            0.0000000000
     13796      4599  TIP3      H1             31.8807094676      -18.0634748050        7.6732000322  W2        5312            0.0000000000
     13797      4599  TIP3      H2             32.1387394676      -19.5157248050        8.0141500322  W2        5312            0.0000000000
     13798      4600  TIP3      OH2            19.8315294676       -2.9148348050        7.4292000322  W2        5313            0.0000000000
     13799      4600  TIP3      H1             19.1465194676       -2.9529448050        6.7617100322  W2        5313            0.0000000000
     13800      4600  TIP3      H2             19.8352494676       -2.0020748050        7.7174100322  W2        5313            0.0000000000
     13801      4601  TIP3      OH2            21.7914894676      -16.9469048050        4.9741000322  W2        5314            0.0000000000
     13802      4601  TIP3      H1             22.2828294676      -17.5766648050        4.4466500322  W2        5314            0.0000000000
     13803      4601  TIP3      H2             22.4151194676      -16.6509648050        5.6372200322  W2        5314            0.0000000000
     13804      4602  TIP3      OH2            26.8174994676      -16.6537548050        7.4311500322  W2        5315            0.0000000000
     13805      4602  TIP3      H1             26.9956294676      -17.3004348050        8.1140100322  W2        5315            0.0000000000
     13806      4602  TIP3      H2             26.7641194676      -15.8199848050        7.8982600322  W2        5315            0.0000000000
     13807      4603  TIP3      OH2            28.6958794676       -1.7053448050        5.8268200322  W2        5316            0.0000000000
     13808      4603  TIP3      H1             29.5618994676       -1.3386048050        5.6486400322  W2        5316            0.0000000000
     13809      4603  TIP3      H2             28.4491594676       -2.1445448050        5.0129000322  W2        5316            0.0000000000
     13810      4604  TIP3      OH2            35.4048394676       -2.1423148050        8.5059300322  W2        5317            0.0000000000
     13811      4604  TIP3      H1             35.2105494676       -2.8901048050        7.9408900322  W2        5317            0.0000000000
     13812      4604  TIP3      H2             35.3658494676       -1.3843048050        7.9227200322  W2        5317            0.0000000000
     13813      4605  TIP3      OH2            21.6496494676       -1.9947548050        4.4544100322  W2        5320            0.0000000000
     13814      4605  TIP3      H1             21.3821094676       -1.7084648050        5.3277200322  W2        5320            0.0000000000
     13815      4605  TIP3      H2             22.4209094676       -2.5408348050        4.6066600322  W2        5320            0.0000000000
     13816      4606  TIP3      OH2            37.8634894676      -12.5252048050        9.6264300322  W2        5323            0.0000000000
     13817      4606  TIP3      H1             37.4158294676      -11.6793348050        9.6080800322  W2        5323            0.0000000000
     13818      4606  TIP3      H2             37.3026094676      -13.1047848050        9.1109400322  W2        5323            0.0000000000
     13819      4607  TIP3      OH2            37.6344394676       -5.2079548050       14.2612300322  W2        5325            0.0000000000
     13820      4607  TIP3      H1             38.5804994676       -5.3522548050       14.2421800322  W2        5325            0.0000000000
     13821      4607  TIP3      H2             37.5220694676       -4.4236748050       14.7983500322  W2        5325            0.0000000000
     13822      4608  TIP3      OH2            37.2011594676      -15.7927648050       11.2286000322  W2        5326            0.0000000000
     13823      4608  TIP3      H1             37.8319294676      -15.8215548050       11.9479900322  W2        5326            0.0000000000
     13824      4608  TIP3      H2             37.6505894676      -16.2178948050       10.4981900322  W2        5326            0.0000000000
     13825      4609  TIP3      OH2            37.1240394676       -0.9019348050       10.1414900322  W2        5329            0.0000000000
     13826      4609  TIP3      H1             36.4767494676       -1.3637648050        9.6086100322  W2        5329            0.0000000000
     13827      4609  TIP3      H2             37.4784994676       -1.5736048050       10.7241100322  W2        5329            0.0000000000
     13828      4610  TIP3      OH2            37.9939594676       -2.8212348050       11.9461100322  W2        5330            0.0000000000
     13829      4610  TIP3      H1             37.6596394676       -3.7015048050       12.1181300322  W2        5330            0.0000000000
     13830      4610  TIP3      H2             38.2161994676       -2.4757348050       12.8106700322  W2        5330            0.0000000000
     13831      4611  TIP3      OH2            38.0739094676       -9.7456948050       14.3976000322  W2        5331            0.0000000000
     13832      4611  TIP3      H1             38.2581994676       -9.8275248050       13.4618900322  W2        5331            0.0000000000
     13833      4611  TIP3      H2             38.9231994676       -9.8699948050       14.8212400322  W2        5331            0.0000000000
     13834      4612  TIP3      OH2            37.1966694676      -13.1637348050       14.4987900322  W2        5333            0.0000000000
     13835      4612  TIP3      H1             37.6886494676      -13.3846848050       13.7079900322  W2        5333            0.0000000000
     13836      4612  TIP3      H2             37.5587594676      -12.3233948050       14.7797400322  W2        5333            0.0000000000
     13837      4613  TIP3      OH2            37.5103194676      -16.9058248050        8.5530300322  W2        5334            0.0000000000
     13838      4613  TIP3      H1             36.5851594676      -16.6971648050        8.4235800322  W2        5334            0.0000000000
     13839      4613  TIP3      H2             37.9643094676      -16.4217448050        7.8632600322  W2        5334            0.0000000000
     13840      4614  TIP3      OH2           -26.3955005324        9.3513651950       10.6868300322  W2        5336            0.0000000000
     13841      4614  TIP3      H1            -26.3063905324       10.2951851950       10.5545400322  W2        5336            0.0000000000
     13842      4614  TIP3      H2            -27.0337405324        9.0760051950       10.0287700322  W2        5336            0.0000000000
     13843      4615  TIP3      OH2           -27.4623705324        8.6064351950       14.1056500322  W2        5337            0.0000000000
     13844      4615  TIP3      H1            -27.5006205324        7.9600651950       14.8106100322  W2        5337            0.0000000000
     13845      4615  TIP3      H2            -27.7847205324        8.1398751950       13.3345200322  W2        5337            0.0000000000
     13846      4616  TIP3      OH2           -23.7563505324       11.5454751950       12.4071600322  W2        5339            0.0000000000
     13847      4616  TIP3      H1            -24.1970805324       10.8250751950       12.8577200322  W2        5339            0.0000000000
     13848      4616  TIP3      H2            -23.7693805324       12.2661951950       13.0369300322  W2        5339            0.0000000000
     13849      4617  TIP3      OH2           -34.1705605324       12.6705351950       14.2335500322  W2        5340            0.0000000000
     13850      4617  TIP3      H1            -34.5400405324       11.8685851950       13.8639800322  W2        5340            0.0000000000
     13851      4617  TIP3      H2            -33.2294505324       12.5020251950       14.2798900322  W2        5340            0.0000000000
     13852      4618  TIP3      OH2           -37.5605105324        6.3307951950        9.6264300322  W2        5341            0.0000000000
     13853      4618  TIP3      H1            -38.0081705324        7.1766651950        9.6080800322  W2        5341            0.0000000000
     13854      4618  TIP3      H2            -38.1213905324        5.7512151950        9.1109400322  W2        5341            0.0000000000
     13855      4619  TIP3      OH2           -36.8499005324        8.4927551950       11.7522300322  W2        5342            0.0000000000
     13856      4619  TIP3      H1            -36.6365505324        7.7229151950       12.2795300322  W2        5342            0.0000000000
     13857      4619  TIP3      H2            -36.1121405324        8.5824251950       11.1489900322  W2        5342            0.0000000000
     13858      4620  TIP3      OH2           -26.6448005324       16.6496451950       12.6192000322  W2        5343            0.0000000000
     13859      4620  TIP3      H1            -26.0251605324       15.9731151950       12.3461200322  W2        5343            0.0000000000
     13860      4620  TIP3      H2            -26.8530605324       16.4317251950       13.5276900322  W2        5343            0.0000000000
     13861      4621  TIP3      OH2           -29.0729305324       11.0385751950       14.5117500322  W2        5344            0.0000000000
     13862      4621  TIP3      H1            -28.7691405324       10.3527151950       13.9171600322  W2        5344            0.0000000000
     13863      4621  TIP3      H2            -28.3515305324       11.1574451950       15.1295500322  W2        5344            0.0000000000
     13864      4622  TIP3      OH2           -25.9322305324        5.4328151950       14.8392300322  W2        5346            0.0000000000
     13865      4622  TIP3      H1            -25.7896405324        4.4865151950       14.8593900322  W2        5346            0.0000000000
     13866      4622  TIP3      H2            -26.0383305324        5.6397951950       13.9107200322  W2        5346            0.0000000000
     13867      4623  TIP3      OH2           -32.7774005324        3.5344551950       12.1117100322  W2        5347            0.0000000000
     13868      4623  TIP3      H1            -32.7342905324        4.3943051950       11.6933400322  W2        5347            0.0000000000
     13869      4623  TIP3      H2            -33.2349905324        2.9819251950       11.4780300322  W2        5347            0.0000000000
     13870      4624  TIP3      OH2           -25.0551305324        3.6650151950       10.5125400322  W2        5348            0.0000000000
     13871      4624  TIP3      H1            -24.4087005324        3.3363351950       11.1373000322  W2        5348            0.0000000000
     13872      4624  TIP3      H2            -24.5451905324        4.1829151950        9.8896800322  W2        5348            0.0000000000
     13873      4625  TIP3      OH2           -36.1572505324        5.9310351950       12.8738500322  W2        5349            0.0000000000
     13874      4625  TIP3      H1            -35.5035905324        5.3812051950       13.3058600322  W2        5349            0.0000000000
     13875      4625  TIP3      H2            -36.1333205324        5.6569351950       11.9570500322  W2        5349            0.0000000000
     13876      4626  TIP3      OH2           -31.0008005324        7.4811651950       12.0890000322  W2        5350            0.0000000000
     13877      4626  TIP3      H1            -30.3847005324        6.9547051950       12.5984000322  W2        5350            0.0000000000
     13878      4626  TIP3      H2            -31.5869205324        6.8410351950       11.6853600322  W2        5350            0.0000000000
     13879      4627  TIP3      OH2           -26.5982305324       11.9524051950        9.7297000322  W2        5353            0.0000000000
     13880      4627  TIP3      H1            -26.8937205324       11.6296351950        8.8783900322  W2        5353            0.0000000000
     13881      4627  TIP3      H2            -26.9224505324       12.8520751950        9.7709600322  W2        5353            0.0000000000
     13882      4628  TIP3      OH2           -23.2912905324        2.9559451950       12.4931300322  W2        5355            0.0000000000
     13883      4628  TIP3      H1            -23.5064905324        2.1902851950       13.0257300322  W2        5355            0.0000000000
     13884      4628  TIP3      H2            -22.6355505324        3.4284051950       13.0059800322  W2        5355            0.0000000000
     13885      4629  TIP3      OH2           -34.3734805324        4.3444751950       14.1380100322  W2        5356            0.0000000000
     13886      4629  TIP3      H1            -33.7598505324        4.9772351950       14.5112500322  W2        5356            0.0000000000
     13887      4629  TIP3      H2            -33.8614105324        3.8719751950       13.4817000322  W2        5356            0.0000000000
     13888      4630  TIP3      OH2           -36.8695505324       11.7629551950        8.0422400322  W2        5358            0.0000000000
     13889      4630  TIP3      H1            -37.1414605324       11.9920551950        7.1535300322  W2        5358            0.0000000000
     13890      4630  TIP3      H2            -36.8239805324       12.6008351950        8.5027700322  W2        5358            0.0000000000
     13891      4631  TIP3      OH2           -23.2445805324       13.3845451950       14.7550900322  W2        5359            0.0000000000
     13892      4631  TIP3      H1            -24.1862105324       13.4429351950       14.9167800322  W2        5359            0.0000000000
     13893      4631  TIP3      H2            -22.9679705324       14.2905951950       14.6180600322  W2        5359            0.0000000000
     13894      4632  TIP3      OH2           -29.9407405324       -0.2421948050       13.6382800322  W2        5361            0.0000000000
     13895      4632  TIP3      H1            -30.0583205324       -1.1905948050       13.5841100322  W2        5361            0.0000000000
     13896      4632  TIP3      H2            -30.7957305324        0.0904151950       13.9113900322  W2        5361            0.0000000000
     13897      4633  TIP3      OH2           -24.9924605324       15.1658951950       11.3802500322  W2        5362            0.0000000000
     13898      4633  TIP3      H1            -24.5672305324       14.4586851950       10.8952100322  W2        5362            0.0000000000
     13899      4633  TIP3      H2            -24.6754605324       15.9671651950       10.9634700322  W2        5362            0.0000000000
     13900      4634  TIP3      OH2           -23.8328105324       13.0667451950        9.8889100322  W2        5363            0.0000000000
     13901      4634  TIP3      H1            -24.0903305324       12.3767551950        9.2775000322  W2        5363            0.0000000000
     13902      4634  TIP3      H2            -23.7617305324       12.6238651950       10.7345000322  W2        5363            0.0000000000
     13903      4635  TIP3      OH2           -27.6742505324        8.5953651950        8.1388600322  W2        5365            0.0000000000
     13904      4635  TIP3      H1            -28.3857005324        9.1303351950        7.7869100322  W2        5365            0.0000000000
     13905      4635  TIP3      H2            -26.9832905324        8.6505751950        7.4787500322  W2        5365            0.0000000000
     13906      4636  TIP3      OH2           -27.6203305324        7.0527951950        5.1773600322  W2        5366            0.0000000000
     13907      4636  TIP3      H1            -26.9193405324        7.0754851950        5.8287600322  W2        5366            0.0000000000
     13908      4636  TIP3      H2            -27.3180405324        6.4247651950        4.5212900322  W2        5366            0.0000000000
     13909      4637  TIP3      OH2           -24.2684805324        8.8046951950        9.0904500322  W2        5368            0.0000000000
     13910      4637  TIP3      H1            -25.0003805324        9.0330651950        9.6635100322  W2        5368            0.0000000000
     13911      4637  TIP3      H2            -23.8212605324        8.0909651950        9.5452000322  W2        5368            0.0000000000
     13912      4638  TIP3      OH2           -32.6231105324        9.4353151950       10.9729500322  W2        5370            0.0000000000
     13913      4638  TIP3      H1            -32.9535905324        9.0646551950       10.1546500322  W2        5370            0.0000000000
     13914      4638  TIP3      H2            -32.0347005324        8.7647151950       11.3197800322  W2        5370            0.0000000000
     13915      4639  TIP3      OH2           -31.2563605324       12.8633751950       13.6541700322  W2        5371            0.0000000000
     13916      4639  TIP3      H1            -31.3512305324       12.2846851950       12.8976300322  W2        5371            0.0000000000
     13917      4639  TIP3      H2            -30.5270005324       12.4919451950       14.1504500322  W2        5371            0.0000000000
     13918      4640  TIP3      OH2           -32.2565605324        8.2038751950       14.6064500322  W2        5372            0.0000000000
     13919      4640  TIP3      H1            -31.6913105324        8.3252951950       13.8435700322  W2        5372            0.0000000000
     13920      4640  TIP3      H2            -31.9376705324        8.8413751950       15.2453000322  W2        5372            0.0000000000
     13921      4641  TIP3      OH2           -25.3975305324        7.9669851950        6.7755700322  W2        5375            0.0000000000
     13922      4641  TIP3      H1            -24.8179805324        8.1170151950        7.5224600322  W2        5375            0.0000000000
     13923      4641  TIP3      H2            -24.9835305324        8.4377251950        6.0522100322  W2        5375            0.0000000000
     13924      4642  TIP3      OH2           -27.6710405324       14.7038351950       10.2108800322  W2        5377            0.0000000000
     13925      4642  TIP3      H1            -27.1972805324       14.9994651950       10.9883000322  W2        5377            0.0000000000
     13926      4642  TIP3      H2            -28.2341105324       15.4419951950        9.9778400322  W2        5377            0.0000000000
     13927      4643  TIP3      OH2           -21.6986905324       -0.2829748050        6.5885400322  W2        5379            0.0000000000
     13928      4643  TIP3      H1            -22.5986205324       -0.1440748050        6.8836000322  W2        5379            0.0000000000
     13929      4643  TIP3      H2            -21.4468505324        0.5484851950        6.1867100322  W2        5379            0.0000000000
     13930      4644  TIP3      OH2           -33.6328405324        8.5047451950        8.5622300322  W2        5380            0.0000000000
     13931      4644  TIP3      H1            -33.9247105324        9.2729151950        8.0713600322  W2        5380            0.0000000000
     13932      4644  TIP3      H2            -34.3073205324        7.8453651950        8.3993700322  W2        5380            0.0000000000
     13933      4645  TIP3      OH2           -20.5095505324       14.0832651950        4.9649300322  W2        5381            0.0000000000
     13934      4645  TIP3      H1            -20.4362005324       15.0222851950        5.1354600322  W2        5381            0.0000000000
     13935      4645  TIP3      H2            -19.6040405324       13.7781251950        4.9086600322  W2        5381            0.0000000000
     13936      4646  TIP3      OH2           -37.7895605324       13.6480451950       14.2612300322  W2        5383            0.0000000000
     13937      4646  TIP3      H1            -36.8435005324       13.5037451950       14.2421800322  W2        5383            0.0000000000
     13938      4646  TIP3      H2            -37.9019305324       14.4323251950       14.7983500322  W2        5383            0.0000000000
     13939      4647  TIP3      OH2           -28.1987305324       17.6603051950        8.6258000322  W2        5386            0.0000000000
     13940      4647  TIP3      H1            -28.2741305324       17.5390251950        7.6793200322  W2        5386            0.0000000000
     13941      4647  TIP3      H2            -28.1658605324       18.6095751950        8.7442600322  W2        5386            0.0000000000
     13942      4648  TIP3      OH2           -34.5453505324       16.4490051950       10.4067000322  W2        5387            0.0000000000
     13943      4648  TIP3      H1            -34.3933105324       16.1010451950       11.2853500322  W2        5387            0.0000000000
     13944      4648  TIP3      H2            -35.3963105324       16.0927351950       10.1514200322  W2        5387            0.0000000000
     13945      4649  TIP3      OH2           -25.0971305324       16.8143251950        5.6280400322  W2        5388            0.0000000000
     13946      4649  TIP3      H1            -24.7222905324       16.0699351950        5.1573000322  W2        5388            0.0000000000
     13947      4649  TIP3      H2            -25.0927605324       16.5443851950        6.5463700322  W2        5388            0.0000000000
     13948      4650  TIP3      OH2           -25.4283205324       16.7400351950        8.3772600322  W2        5389            0.0000000000
     13949      4650  TIP3      H1            -26.3633405324       16.8402251950        8.5559600322  W2        5389            0.0000000000
     13950      4650  TIP3      H2            -25.1481305324       16.0306351950        8.9555800322  W2        5389            0.0000000000
     13951      4651  TIP3      OH2           -32.6719805324        0.6612551950       14.4159100322  W2        5392            0.0000000000
     13952      4651  TIP3      H1            -33.5336105324        0.5740751950       14.0082000322  W2        5392            0.0000000000
     13953      4651  TIP3      H2            -32.6944105324        1.5172651950       14.8436700322  W2        5392            0.0000000000
     13954      4652  TIP3      OH2           -23.9202205324        8.9998151950        4.4053600322  W2        5395            0.0000000000
     13955      4652  TIP3      H1            -23.8781405324        8.7772051950        3.4753600322  W2        5395            0.0000000000
     13956      4652  TIP3      H2            -23.0710105324        9.3985251950        4.5953500322  W2        5395            0.0000000000
     13957      4653  TIP3      OH2           -28.3474705324        2.8756351950        5.0756900322  W2        5396            0.0000000000
     13958      4653  TIP3      H1            -28.6009905324        2.8947951950        5.9985000322  W2        5396            0.0000000000
     13959      4653  TIP3      H2            -28.6042605324        2.0041751950        4.7743100322  W2        5396            0.0000000000
     13960      4654  TIP3      OH2           -32.5840605324        5.8477151950       10.4229300322  W2        5398            0.0000000000
     13961      4654  TIP3      H1            -33.4767705324        5.5073251950       10.3643100322  W2        5398            0.0000000000
     13962      4654  TIP3      H2            -32.1334005324        5.4708051950        9.6672500322  W2        5398            0.0000000000
     13963      4655  TIP3      OH2           -27.0485105324        6.2637451950        9.2400100322  W2        5399            0.0000000000
     13964      4655  TIP3      H1            -27.4574805324        7.0786051950        8.9484900322  W2        5399            0.0000000000
     13965      4655  TIP3      H2            -26.3278905324        6.1237551950        8.6257200322  W2        5399            0.0000000000
     13966      4656  TIP3      OH2           -26.0437405324        5.7097851950       12.0539800322  W2        5401            0.0000000000
     13967      4656  TIP3      H1            -26.2392905324        6.3154651950       11.3390400322  W2        5401            0.0000000000
     13968      4656  TIP3      H2            -25.8624805324        4.8763051950       11.6196100322  W2        5401            0.0000000000
     13969      4657  TIP3      OH2           -31.4651805324        3.3212851950        4.1767300322  W2        5403            0.0000000000
     13970      4657  TIP3      H1            -31.8961105324        2.8762951950        4.9064700322  W2        5403            0.0000000000
     13971      4657  TIP3      H2            -32.1833105324        3.6929151950        3.6644800322  W2        5403            0.0000000000
     13972      4658  TIP3      OH2           -38.2228405324        3.0632351950       11.2286000322  W2        5404            0.0000000000
     13973      4658  TIP3      H1            -37.5920705324        3.0344451950       11.9479900322  W2        5404            0.0000000000
     13974      4658  TIP3      H2            -37.7734105324        2.6381051950       10.4981900322  W2        5404            0.0000000000
     13975      4659  TIP3      OH2           -36.9486305324        3.8094351950        6.6526400322  W2        5405            0.0000000000
     13976      4659  TIP3      H1            -36.4744605324        4.4004251950        6.0677300322  W2        5405            0.0000000000
     13977      4659  TIP3      H2            -37.6659905324        4.3397251950        6.9996500322  W2        5405            0.0000000000
     13978      4660  TIP3      OH2           -30.0025305324        3.2754651950       11.5093400322  W2        5407            0.0000000000
     13979      4660  TIP3      H1            -30.9134205324        3.3321451950       11.7979400322  W2        5407            0.0000000000
     13980      4660  TIP3      H2            -29.4972405324        3.2150151950       12.3200600322  W2        5407            0.0000000000
     13981      4661  TIP3      OH2           -35.1741905324        4.9040951950       10.3361000322  W2        5408            0.0000000000
     13982      4661  TIP3      H1            -36.0633905324        5.0036451950        9.9960600322  W2        5408            0.0000000000
     13983      4661  TIP3      H2            -34.8777005324        4.0623951950        9.9898900322  W2        5408            0.0000000000
     13984      4662  TIP3      OH2           -31.5210105324        4.9043551950        7.9925600322  W2        5409            0.0000000000
     13985      4662  TIP3      H1            -30.5894605324        5.0333551950        8.1708700322  W2        5409            0.0000000000
     13986      4662  TIP3      H2            -31.7359805324        5.5737851950        7.3430300322  W2        5409            0.0000000000
     13987      4663  TIP3      OH2           -25.5973405324        2.5100951950       14.7735200322  W2        5410            0.0000000000
     13988      4663  TIP3      H1            -26.2741805324        2.6414051950       15.4374900322  W2        5410            0.0000000000
     13989      4663  TIP3      H2            -26.0828505324        2.3550451950       13.9632900322  W2        5410            0.0000000000
     13990      4664  TIP3      OH2           -32.8469905324        6.0985751950        5.5591700322  W2        5411            0.0000000000
     13991      4664  TIP3      H1            -33.3894805324        5.7189551950        4.8679300322  W2        5411            0.0000000000
     13992      4664  TIP3      H2            -32.0135005324        6.2930451950        5.1305800322  W2        5411            0.0000000000
     13993      4665  TIP3      OH2           -28.6825605324        6.0627651950       13.3963000322  W2        5414            0.0000000000
     13994      4665  TIP3      H1            -28.1182205324        5.5164251950       12.8492600322  W2        5414            0.0000000000
     13995      4665  TIP3      H2            -28.8302205324        5.5409551950       14.1850600322  W2        5414            0.0000000000
     13996      4666  TIP3      OH2           -33.6805905324        2.1993751950        9.8147800322  W2        5415            0.0000000000
     13997      4666  TIP3      H1            -33.9976405324        1.2969051950        9.7793200322  W2        5415            0.0000000000
     13998      4666  TIP3      H2            -32.8991805324        2.2011151950        9.2619400322  W2        5415            0.0000000000
     13999      4667  TIP3      OH2           -29.5117105324       10.6641451950        7.4949800322  W2        5417            0.0000000000
     14000      4667  TIP3      H1            -30.2566105324       10.1566751950        7.1727700322  W2        5417            0.0000000000
     14001      4667  TIP3      H2            -29.6459905324       10.7129451950        8.4414600322  W2        5417            0.0000000000
     14002      4668  TIP3      OH2           -25.6140305324        3.4781351950        5.6942400322  W2        5419            0.0000000000
     14003      4668  TIP3      H1            -26.5526105324        3.5896951950        5.5431200322  W2        5419            0.0000000000
     14004      4668  TIP3      H2            -25.3168205324        4.3348251950        6.0008100322  W2        5419            0.0000000000
     14005      4669  TIP3      OH2           -24.8956805324        5.3454051950        7.3549800322  W2        5421            0.0000000000
     14006      4669  TIP3      H1            -24.0037805324        5.2079051950        7.6741000322  W2        5421            0.0000000000
     14007      4669  TIP3      H2            -24.8393205324        6.1360151950        6.8183300322  W2        5421            0.0000000000
     14008      4670  TIP3      OH2           -34.3868805324        9.9591451950       13.2647700322  W2        5422            0.0000000000
     14009      4670  TIP3      H1            -33.6421605324        9.9567151950       12.6634200322  W2        5422            0.0000000000
     14010      4670  TIP3      H2            -34.3092205324        9.1355251950       13.7462800322  W2        5422            0.0000000000
     14011      4671  TIP3      OH2           -27.3863005324       12.1225751950        6.5204400322  W2        5423            0.0000000000
     14012      4671  TIP3      H1            -27.6814605324       12.9493651950        6.9019200322  W2        5423            0.0000000000
     14013      4671  TIP3      H2            -28.0893005324       11.5032651950        6.7165800322  W2        5423            0.0000000000
     14014      4672  TIP3      OH2           -20.0108105324        5.5548151950        7.0496500322  W2        5427            0.0000000000
     14015      4672  TIP3      H1            -20.5651805324        5.1586151950        6.3774000322  W2        5427            0.0000000000
     14016      4672  TIP3      H2            -19.9104505324        6.4653351950        6.7719800322  W2        5427            0.0000000000
     14017      4673  TIP3      OH2           -21.7156405324       14.3408551950        7.5148600322  W2        5429            0.0000000000
     14018      4673  TIP3      H1            -22.0885305324       13.5152351950        7.8239200322  W2        5429            0.0000000000
     14019      4673  TIP3      H2            -21.4382905324       14.1577951950        6.6172000322  W2        5429            0.0000000000
     14020      4674  TIP3      OH2           -24.5552505324        9.1488051950       14.5360500322  W2        5430            0.0000000000
     14021      4674  TIP3      H1            -25.4835605324        8.9169951950       14.5089800322  W2        5430            0.0000000000
     14022      4674  TIP3      H2            -24.1041405324        8.3717851950       14.2059300322  W2        5430            0.0000000000
     14023      4675  TIP3      OH2           -32.0119405324       13.4769651950       10.6689200322  W2        5431            0.0000000000
     14024      4675  TIP3      H1            -31.4847205324       14.2504051950       10.4688000322  W2        5431            0.0000000000
     14025      4675  TIP3      H2            -32.8920905324       13.7018851950       10.3673200322  W2        5431            0.0000000000
     14026      4676  TIP3      OH2           -36.2571705324        8.3393751950        5.2561600322  W2        5432            0.0000000000
     14027      4676  TIP3      H1            -35.6411805324        8.9660951950        5.6356400322  W2        5432            0.0000000000
     14028      4676  TIP3      H2            -37.1189105324        8.6553551950        5.5278100322  W2        5432            0.0000000000
     14029      4677  TIP3      OH2           -30.5847105324       11.1399551950       10.2453500322  W2        5433            0.0000000000
     14030      4677  TIP3      H1            -30.8257105324       12.0653951950       10.2868800322  W2        5433            0.0000000000
     14031      4677  TIP3      H2            -31.3253505324       10.6810851950       10.6417400322  W2        5433            0.0000000000
     14032      4678  TIP3      OH2           -31.9016305324       16.1617151950        9.7905700322  W2        5435            0.0000000000
     14033      4678  TIP3      H1            -32.8515805324       16.2674551950        9.8419000322  W2        5435            0.0000000000
     14034      4678  TIP3      H2            -31.5498205324       16.9824551950       10.1353200322  W2        5435            0.0000000000
     14035      4679  TIP3      OH2           -24.3230805324       12.3174351950        5.3349200322  W2        5437            0.0000000000
     14036      4679  TIP3      H1            -23.9697705324       11.9374151950        6.1392700322  W2        5437            0.0000000000
     14037      4679  TIP3      H2            -25.2717305324       12.2239151950        5.4218500322  W2        5437            0.0000000000
     14038      4680  TIP3      OH2           -19.8196405324       16.7966851950        5.5359400322  W2        5439            0.0000000000
     14039      4680  TIP3      H1            -19.0758505324       17.3827351950        5.3961000322  W2        5439            0.0000000000
     14040      4680  TIP3      H2            -20.5138305324       17.3652651950        5.8691800322  W2        5439            0.0000000000
     14041      4681  TIP3      OH2           -23.4571505324       10.9896351950        7.5617100322  W2        5441            0.0000000000
     14042      4681  TIP3      H1            -23.7343905324       10.2615651950        8.1178200322  W2        5441            0.0000000000
     14043      4681  TIP3      H2            -22.5298505324       11.1088351950        7.7669700322  W2        5441            0.0000000000
     14044      4682  TIP3      OH2           -30.2323005324       13.4290451950        3.7819200322  W2        5443            0.0000000000
     14045      4682  TIP3      H1            -29.9933205324       12.6808551950        3.2348100322  W2        5443            0.0000000000
     14046      4682  TIP3      H2            -30.5011705324       13.0412151950        4.6147000322  W2        5443            0.0000000000
     14047      4683  TIP3      OH2           -31.2952405324       12.9994251950        6.2381800322  W2        5444            0.0000000000
     14048      4683  TIP3      H1            -31.1484405324       12.4794051950        7.0282700322  W2        5444            0.0000000000
     14049      4683  TIP3      H2            -31.2980705324       13.9061851950        6.5447700322  W2        5444            0.0000000000
     14050      4684  TIP3      OH2           -34.8421305324       10.2517551950        6.7487200322  W2        5445            0.0000000000
     14051      4684  TIP3      H1            -35.5282005324       10.6040051950        7.3156900322  W2        5445            0.0000000000
     14052      4684  TIP3      H2            -34.3193405324       11.0147151950        6.5021500322  W2        5445            0.0000000000
     14053      4685  TIP3      OH2           -26.2261305324        2.5663051950        8.1248500322  W2        5447            0.0000000000
     14054      4685  TIP3      H1            -26.0063005324        3.0378451950        7.3213900322  W2        5447            0.0000000000
     14055      4685  TIP3      H2            -25.6677305324        2.9605651950        8.7949100322  W2        5447            0.0000000000
     14056      4686  TIP3      OH2           -28.5575205324       14.6967851950        6.9876000322  W2        5448            0.0000000000
     14057      4686  TIP3      H1            -29.3739105324       15.1937551950        7.0400300322  W2        5448            0.0000000000
     14058      4686  TIP3      H2            -28.0278905324       15.1721351950        6.3474800322  W2        5448            0.0000000000
     14059      4687  TIP3      OH2           -29.0261405324        4.2941851950        8.9596900322  W2        5449            0.0000000000
     14060      4687  TIP3      H1            -28.2138805324        4.7985051950        9.0058600322  W2        5449            0.0000000000
     14061      4687  TIP3      H2            -29.2708405324        4.1491551950        9.8736500322  W2        5449            0.0000000000
     14062      4688  TIP3      OH2           -28.1424705324        1.3754851950        9.8978000322  W2        5451            0.0000000000
     14063      4688  TIP3      H1            -28.4891205324        1.9925451950       10.5422300322  W2        5451            0.0000000000
     14064      4688  TIP3      H2            -27.4837805324        1.8760551950        9.4163500322  W2        5451            0.0000000000
     14065      4689  TIP3      OH2           -31.2192105324       15.7405051950        6.9692900322  W2        5452            0.0000000000
     14066      4689  TIP3      H1            -31.0583405324       16.5402551950        6.4685500322  W2        5452            0.0000000000
     14067      4689  TIP3      H2            -31.4164305324       16.0471051950        7.8543500322  W2        5452            0.0000000000
     14068      4690  TIP3      OH2           -32.4847705324        2.4384251950        6.5850500322  W2        5453            0.0000000000
     14069      4690  TIP3      H1            -32.5682905324        3.3267351950        6.9316900322  W2        5453            0.0000000000
     14070      4690  TIP3      H2            -31.5947405324        2.1730951950        6.8167300322  W2        5453            0.0000000000
     14071      4691  TIP3      OH2           -23.6838205324        6.9375851950       13.0750500322  W2        5455            0.0000000000
     14072      4691  TIP3      H1            -24.4813805324        6.5226051950       12.7465500322  W2        5455            0.0000000000
     14073      4691  TIP3      H2            -23.2387105324        6.2469551950       13.5661000322  W2        5455            0.0000000000
     14074      4692  TIP3      OH2           -34.2262405324       12.8656451950        5.6455000322  W2        5456            0.0000000000
     14075      4692  TIP3      H1            -33.6340905324       13.5651251950        5.9217400322  W2        5456            0.0000000000
     14076      4692  TIP3      H2            -33.7669405324       12.4325951950        4.9259600322  W2        5456            0.0000000000
     14077      4693  TIP3      OH2           -35.9103205324        5.5299451950        4.7614400322  W2        5457            0.0000000000
     14078      4693  TIP3      H1            -35.9550605324        6.4692551950        4.9401400322  W2        5457            0.0000000000
     14079      4693  TIP3      H2            -36.7980005324        5.2944351950        4.4916500322  W2        5457            0.0000000000
     14080      4694  TIP3      OH2           -22.5973605324       16.1938351950       14.6974000322  W2        5458            0.0000000000
     14081      4694  TIP3      H1            -22.7529305324       16.8722751950       14.0403300322  W2        5458            0.0000000000
     14082      4694  TIP3      H2            -21.6647205324       16.2657651950       14.9004600322  W2        5458            0.0000000000
     14083      4695  TIP3      OH2           -35.1021205324        0.3116051950       13.4345400322  W2        5459            0.0000000000
     14084      4695  TIP3      H1            -35.3311405324        0.3708551950       12.5070400322  W2        5459            0.0000000000
     14085      4695  TIP3      H2            -35.5447805324       -0.4798448050       13.7409500322  W2        5459            0.0000000000
     14086      4696  TIP3      OH2           -36.1717905324       14.2523151950        9.5951200322  W2        5460            0.0000000000
     14087      4696  TIP3      H1            -37.0039305324       14.7245851950        9.6222600322  W2        5460            0.0000000000
     14088      4696  TIP3      H2            -35.6259605324       14.7620751950        8.9964300322  W2        5460            0.0000000000
     14089      4697  TIP3      OH2           -28.1941205324       15.2921851950        3.9205200322  W2        5463            0.0000000000
     14090      4697  TIP3      H1            -28.8380205324       14.6610451950        4.2418900322  W2        5463            0.0000000000
     14091      4697  TIP3      H2            -27.4322905324       14.7609851950        3.6888700322  W2        5463            0.0000000000
     14092      4698  TIP3      OH2           -23.5898305324       15.1091751950        4.1543200322  W2        5465            0.0000000000
     14093      4698  TIP3      H1            -23.3067905324       14.3146951950        4.6070100322  W2        5465            0.0000000000
     14094      4698  TIP3      H2            -22.8500405324       15.3422751950        3.5934300322  W2        5465            0.0000000000
     14095      4699  TIP3      OH2           -32.6351005324       11.0186651950        4.0118100322  W2        5467            0.0000000000
     14096      4699  TIP3      H1            -32.5706905324       10.2246251950        4.5424500322  W2        5467            0.0000000000
     14097      4699  TIP3      H2            -31.9821805324       10.8999451950        3.3220100322  W2        5467            0.0000000000
     14098      4700  TIP3      OH2           -27.2827605324       12.0658351950        3.7476100322  W2        5469            0.0000000000
     14099      4700  TIP3      H1            -27.5513505324       12.2460451950        4.6485000322  W2        5469            0.0000000000
     14100      4700  TIP3      H2            -27.4892005324       11.1404551950        3.6161900322  W2        5469            0.0000000000
     14101      4701  TIP3      OH2           -31.4857205324        8.9912851950        6.3176100322  W2        5472            0.0000000000
     14102      4701  TIP3      H1            -31.9455205324        8.5071151950        7.0034600322  W2        5472            0.0000000000
     14103      4701  TIP3      H2            -31.2308505324        8.3228251950        5.6816600322  W2        5472            0.0000000000
     14104      4702  TIP3      OH2           -30.4146805324        7.2344651950        4.5799300322  W2        5474            0.0000000000
     14105      4702  TIP3      H1            -30.5951805324        7.0795851950        3.6527600322  W2        5474            0.0000000000
     14106      4702  TIP3      H2            -29.4646305324        7.3423351950        4.6247200322  W2        5474            0.0000000000
     14107      4703  TIP3      OH2           -21.0248505324        9.5888851950        4.0257400322  W2        5476            0.0000000000
     14108      4703  TIP3      H1            -21.2983705324        9.1644351950        3.2125700322  W2        5476            0.0000000000
     14109      4703  TIP3      H2            -20.9854405324       10.5203351950        3.8087800322  W2        5476            0.0000000000
     14110      4704  TIP3      OH2           -30.5175105324       17.9248351950        5.5812900322  W2        5490            0.0000000000
     14111      4704  TIP3      H1            -29.5844405324       18.0827051950        5.7251300322  W2        5490            0.0000000000
     14112      4704  TIP3      H2            -30.7816305324       18.6001351950        4.9564400322  W2        5490            0.0000000000
     14113      4705  TIP3      OH2           -36.9490205324       12.5612151950        5.0641000322  W2        5491            0.0000000000
     14114      4705  TIP3      H1            -36.0351005324       12.6401051950        5.3374900322  W2        5491            0.0000000000
     14115      4705  TIP3      H2            -36.9417105324       11.8741751950        4.3976600322  W2        5491            0.0000000000
     14116      4706  TIP3      OH2           -38.2999605324       17.9540651950       10.1414900322  W2        5492            0.0000000000
     14117      4706  TIP3      H1            -38.9472505324       17.4922351950        9.6086100322  W2        5492            0.0000000000
     14118      4706  TIP3      H2            -37.9455005324       17.2823951950       10.7241100322  W2        5492            0.0000000000
     14119      4707  TIP3      OH2           -37.4300405324       16.0347651950       11.9461100322  W2        5493            0.0000000000
     14120      4707  TIP3      H1            -37.7643605324       15.1544951950       12.1181300322  W2        5493            0.0000000000
     14121      4707  TIP3      H2            -37.2078005324       16.3802651950       12.8106700322  W2        5493            0.0000000000
     14122      4708  TIP3      OH2           -20.5665705324       10.4576951950        8.0007800322  W2        5497            0.0000000000
     14123      4708  TIP3      H1            -19.7164305324       10.8787851950        8.1279400322  W2        5497            0.0000000000
     14124      4708  TIP3      H2            -20.5610605324        9.7177051950        8.6079200322  W2        5497            0.0000000000
     14125      4709  TIP3      OH2           -20.1720105324        8.5114351950        9.8243500322  W2        5498            0.0000000000
     14126      4709  TIP3      H1            -20.8985505324        8.0316951950       10.2221100322  W2        5498            0.0000000000
     14127      4709  TIP3      H2            -19.5906805324        8.7169051950       10.5565100322  W2        5498            0.0000000000
     14128      4710  TIP3      OH2           -20.4128905324       11.2961851950       14.7721100322  W2        5499            0.0000000000
     14129      4710  TIP3      H1            -19.5794705324       10.9181851950       14.4914700322  W2        5499            0.0000000000
     14130      4710  TIP3      H2            -20.3008605324       12.2393051950       14.6530200322  W2        5499            0.0000000000
     14131      4711  TIP3      OH2           -19.9037005324        8.4122851950        6.2154800322  W2        5501            0.0000000000
     14132      4711  TIP3      H1            -20.4255905324        8.7686951950        5.4965700322  W2        5501            0.0000000000
     14133      4711  TIP3      H2            -19.9367805324        9.0870651950        6.8935700322  W2        5501            0.0000000000
     14134      4712  TIP3      OH2           -21.5548005324        5.6518451950        4.7661900322  W2        5502            0.0000000000
     14135      4712  TIP3      H1            -21.4583605324        6.3185451950        4.0861600322  W2        5502            0.0000000000
     14136      4712  TIP3      H2            -21.6948405324        4.8364751950        4.2847400322  W2        5502            0.0000000000
     14137      4713  TIP3      OH2           -22.3853305324        7.0320851950       10.3872200322  W2        5503            0.0000000000
     14138      4713  TIP3      H1            -22.5354505324        6.0869451950       10.3670000322  W2        5503            0.0000000000
     14139      4713  TIP3      H2            -22.7388805324        7.3132251950       11.2311300322  W2        5503            0.0000000000
     14140      4714  TIP3      OH2           -37.3500905324        9.1103051950       14.3976000322  W2        5504            0.0000000000
     14141      4714  TIP3      H1            -37.1658005324        9.0284751950       13.4618900322  W2        5504            0.0000000000
     14142      4714  TIP3      H2            -36.5008005324        8.9860051950       14.8212400322  W2        5504            0.0000000000
     14143      4715  TIP3      OH2           -22.3074205324        3.0598251950        3.8837400322  W2        5507            0.0000000000
     14144      4715  TIP3      H1            -21.6968405324        2.6885051950        4.5205600322  W2        5507            0.0000000000
     14145      4715  TIP3      H2            -23.1442705324        2.6385151950        4.0797400322  W2        5507            0.0000000000
     14146      4716  TIP3      OH2           -22.6748505324        4.6146651950        8.8497300322  W2        5508            0.0000000000
     14147      4716  TIP3      H1            -22.3951405324        3.7077051950        8.9739000322  W2        5508            0.0000000000
     14148      4716  TIP3      H2            -21.9156805324        5.0488151950        8.4606500322  W2        5508            0.0000000000
     14149      4717  TIP3      OH2           -22.0630205324        5.1964051950       14.2856200322  W2        5509            0.0000000000
     14150      4717  TIP3      H1            -21.1302205324        5.4083951950       14.2512200322  W2        5509            0.0000000000
     14151      4717  TIP3      H2            -22.2982705324        5.2976151950       15.2079200322  W2        5509            0.0000000000
     14152      4718  TIP3      OH2           -22.0613705324        1.8775951950        8.8979300322  W2        5513            0.0000000000
     14153      4718  TIP3      H1            -21.8788705324        1.4287451950        9.7234300322  W2        5513            0.0000000000
     14154      4718  TIP3      H2            -22.6610805324        1.2930351950        8.4343900322  W2        5513            0.0000000000
     14155      4719  TIP3      OH2           -36.5313605324        2.6929651950       13.4297700322  W2        5514            0.0000000000
     14156      4719  TIP3      H1            -36.0862005324        1.9012151950       13.7317400322  W2        5514            0.0000000000
     14157      4719  TIP3      H2            -36.0650605324        3.4094851950       13.8603300322  W2        5514            0.0000000000
     14158      4720  TIP3      OH2           -38.2273305324        5.6922651950       14.4987900322  W2        5515            0.0000000000
     14159      4720  TIP3      H1            -37.7353505324        5.4713151950       13.7079900322  W2        5515            0.0000000000
     14160      4720  TIP3      H2            -37.8652405324        6.5326051950       14.7797400322  W2        5515            0.0000000000
     14161      4721  TIP3      OH2           -20.1947505324        1.9454051950        5.4259600322  W2        5517            0.0000000000
     14162      4721  TIP3      H1            -19.7824905324        1.2239751950        4.9507600322  W2        5517            0.0000000000
     14163      4721  TIP3      H2            -19.5131005324        2.6148651950        5.4843900322  W2        5517            0.0000000000
     14164      4722  TIP3      OH2           -37.9136805324        1.9501751950        8.5530300322  W2        5518            0.0000000000
     14165      4722  TIP3      H1            -38.8388405324        2.1588351950        8.4235800322  W2        5518            0.0000000000
     14166      4722  TIP3      H2            -37.4596905324        2.4342551950        7.8632600322  W2        5518            0.0000000000
     14167      4723  TIP3      OH2           -23.1429605324       16.9343451950       10.4987700322  W2        5519            0.0000000000
     14168      4723  TIP3      H1            -22.4906705324       16.5865551950        9.8906800322  W2        5519            0.0000000000
     14169      4723  TIP3      H2            -22.6325805324       17.4226651950       11.1447400322  W2        5519            0.0000000000
     14170      4724  TIP3      OH2           -35.9874405324       16.7172451950       14.2579700322  W2        5531            0.0000000000
     14171      4724  TIP3      H1            -36.0058405324       16.2917551950       15.1152000322  W2        5531            0.0000000000
     14172      4724  TIP3      H2            -35.1826505324       16.3987451950       13.8491900322  W2        5531            0.0000000000
     14173      4725  TIP3      OH2           -33.8461305324       15.4271151950       12.9129600322  W2        5532            0.0000000000
     14174      4725  TIP3      H1            -34.0650605324       14.5108551950       13.0825600322  W2        5532            0.0000000000
     14175      4725  TIP3      H2            -33.0219105324       15.5671551950       13.3791000322  W2        5532            0.0000000000
     14176      4726  TIP3      OH2           -31.3088805324       15.8970451950       13.7617600322  W2        5533            0.0000000000
     14177      4726  TIP3      H1            -31.0963105324       15.0089451950       13.4748500322  W2        5533            0.0000000000
     14178      4726  TIP3      H2            -31.2443705324       15.8628151950       14.7161600322  W2        5533            0.0000000000
     14179      4727  TIP3      OH2           -27.8005105324        1.5611051950       12.9060900322  W2        5534            0.0000000000
     14180      4727  TIP3      H1            -28.4748305324        0.9316651950       13.1616700322  W2        5534            0.0000000000
     14181      4727  TIP3      H2            -27.2365905324        1.0769951950       12.3028800322  W2        5534            0.0000000000
     14182      4728  TIP3      OH2           -22.6577905324       -0.3314948050       13.0188000322  W2        5535            0.0000000000
     14183      4728  TIP3      H1            -22.0540305324        0.2160451950       12.5169000322  W2        5535            0.0000000000
     14184      4728  TIP3      H2            -23.5275905324       -0.0124548050       12.7782100322  W2        5535            0.0000000000
     14185      4729  TIP3      OH2           -20.9307505324        0.8073751950       11.3518900322  W2        5536            0.0000000000
     14186      4729  TIP3      H1            -20.3190005324        0.2929451950       10.8252500322  W2        5536            0.0000000000
     14187      4729  TIP3      H2            -20.5484105324        1.6845851950       11.3753300322  W2        5536            0.0000000000
     14188      4730  TIP3      OH2           -35.4737605324        0.1951351950       10.7280800322  W2        5537            0.0000000000
     14189      4730  TIP3      H1            -36.2507805324       -0.0393748050       10.2206700322  W2        5537            0.0000000000
     14190      4730  TIP3      H2            -34.9434005324       -0.6016548050       10.7368800322  W2        5537            0.0000000000
     14191      4731  TIP3      OH2           -36.6374205324       -0.0070548050        6.5316900322  W2        5538            0.0000000000
     14192      4731  TIP3      H1            -36.1983505324        0.6039951950        5.9400400322  W2        5538            0.0000000000
     14193      4731  TIP3      H2            -37.2711805324        0.5313551950        7.0056900322  W2        5538            0.0000000000
     14194      4732  TIP3      OH2           -30.8945005324        0.1218451950       10.5413900322  W2        5539            0.0000000000
     14195      4732  TIP3      H1            -30.0201605324        0.5102751950       10.5118200322  W2        5539            0.0000000000
     14196      4732  TIP3      H2            -31.0304205324       -0.0933748050       11.4641100322  W2        5539            0.0000000000
     14197      4733  TIP3      OH2           -25.3376605324        0.1518251950       12.1905600322  W2        5540            0.0000000000
     14198      4733  TIP3      H1            -25.2615005324        0.2469851950       11.2411600322  W2        5540            0.0000000000
     14199      4733  TIP3      H2            -25.6127405324       -0.7558848050       12.3194700322  W2        5540            0.0000000000
     14200      4734  TIP3      OH2           -23.9844005324        0.1776051950        7.8830600322  W2        5541            0.0000000000
     14201      4734  TIP3      H1            -24.6872905324        0.7925251950        7.6732000322  W2        5541            0.0000000000
     14202      4734  TIP3      H2            -24.4292605324       -0.6597248050        8.0141500322  W2        5541            0.0000000000
     14203      4735  TIP3      OH2           -36.7364705324       15.9411651950        7.4292000322  W2        5542            0.0000000000
     14204      4735  TIP3      H1            -37.4214805324       15.9030551950        6.7617100322  W2        5542            0.0000000000
     14205      4735  TIP3      H2            -36.7327505324       16.8539251950        7.7174100322  W2        5542            0.0000000000
     14206      4736  TIP3      OH2           -34.7765105324        1.9090951950        4.9741000322  W2        5543            0.0000000000
     14207      4736  TIP3      H1            -34.2851705324        1.2793351950        4.4466500322  W2        5543            0.0000000000
     14208      4736  TIP3      H2            -34.1528805324        2.2050351950        5.6372200322  W2        5543            0.0000000000
     14209      4737  TIP3      OH2           -29.7505005324        2.2022451950        7.4311500322  W2        5544            0.0000000000
     14210      4737  TIP3      H1            -29.5723705324        1.5555651950        8.1140100322  W2        5544            0.0000000000
     14211      4737  TIP3      H2            -29.8038805324        3.0360151950        7.8982600322  W2        5544            0.0000000000
     14212      4738  TIP3      OH2           -27.8721205324       17.1506551950        5.8268200322  W2        5545            0.0000000000
     14213      4738  TIP3      H1            -27.0061005324       17.5173951950        5.6486400322  W2        5545            0.0000000000
     14214      4738  TIP3      H2            -28.1188405324       16.7114551950        5.0129000322  W2        5545            0.0000000000
     14215      4739  TIP3      OH2           -21.1631605324       16.7136851950        8.5059300322  W2        5546            0.0000000000
     14216      4739  TIP3      H1            -21.3574505324       15.9658951950        7.9408900322  W2        5546            0.0000000000
     14217      4739  TIP3      H2            -21.2021505324       17.4716951950        7.9227200322  W2        5546            0.0000000000
     14218      4740  TIP3      OH2           -34.9183505324       16.8612451950        4.4544100322  W2        5549            0.0000000000
     14219      4740  TIP3      H1            -35.1858905324       17.1475351950        5.3277200322  W2        5549            0.0000000000
     14220      4740  TIP3      H2            -34.1470905324       16.3151651950        4.6066600322  W2        5549            0.0000000000
     14221      4741  TIP3      OH2            -7.5395005324        9.3513651950       10.6868300322  W2        5552            0.0000000000
     14222      4741  TIP3      H1             -7.4503905324       10.2951851950       10.5545400322  W2        5552            0.0000000000
     14223      4741  TIP3      H2             -8.1777405324        9.0760051950       10.0287700322  W2        5552            0.0000000000
     14224      4742  TIP3      OH2            -8.6063705324        8.6064351950       14.1056500322  W2        5553            0.0000000000
     14225      4742  TIP3      H1             -8.6446205324        7.9600651950       14.8106100322  W2        5553            0.0000000000
     14226      4742  TIP3      H2             -8.9287205324        8.1398751950       13.3345200322  W2        5553            0.0000000000
     14227      4743  TIP3      OH2            -4.9003505324       11.5454751950       12.4071600322  W2        5555            0.0000000000
     14228      4743  TIP3      H1             -5.3410805324       10.8250751950       12.8577200322  W2        5555            0.0000000000
     14229      4743  TIP3      H2             -4.9133805324       12.2661951950       13.0369300322  W2        5555            0.0000000000
     14230      4744  TIP3      OH2           -15.3145605324       12.6705351950       14.2335500322  W2        5556            0.0000000000
     14231      4744  TIP3      H1            -15.6840405324       11.8685851950       13.8639800322  W2        5556            0.0000000000
     14232      4744  TIP3      H2            -14.3734505324       12.5020251950       14.2798900322  W2        5556            0.0000000000
     14233      4745  TIP3      OH2           -18.7045105324        6.3307951950        9.6264300322  W2        5557            0.0000000000
     14234      4745  TIP3      H1            -19.1521705324        7.1766651950        9.6080800322  W2        5557            0.0000000000
     14235      4745  TIP3      H2            -19.2653905324        5.7512151950        9.1109400322  W2        5557            0.0000000000
     14236      4746  TIP3      OH2           -17.9939005324        8.4927551950       11.7522300322  W2        5558            0.0000000000
     14237      4746  TIP3      H1            -17.7805505324        7.7229151950       12.2795300322  W2        5558            0.0000000000
     14238      4746  TIP3      H2            -17.2561405324        8.5824251950       11.1489900322  W2        5558            0.0000000000
     14239      4747  TIP3      OH2            -7.7888005324       16.6496451950       12.6192000322  W2        5559            0.0000000000
     14240      4747  TIP3      H1             -7.1691605324       15.9731151950       12.3461200322  W2        5559            0.0000000000
     14241      4747  TIP3      H2             -7.9970605324       16.4317251950       13.5276900322  W2        5559            0.0000000000
     14242      4748  TIP3      OH2           -10.2169305324       11.0385751950       14.5117500322  W2        5560            0.0000000000
     14243      4748  TIP3      H1             -9.9131405324       10.3527151950       13.9171600322  W2        5560            0.0000000000
     14244      4748  TIP3      H2             -9.4955305324       11.1574451950       15.1295500322  W2        5560            0.0000000000
     14245      4749  TIP3      OH2            -7.0762305324        5.4328151950       14.8392300322  W2        5562            0.0000000000
     14246      4749  TIP3      H1             -6.9336405324        4.4865151950       14.8593900322  W2        5562            0.0000000000
     14247      4749  TIP3      H2             -7.1823305324        5.6397951950       13.9107200322  W2        5562            0.0000000000
     14248      4750  TIP3      OH2           -13.9214005324        3.5344551950       12.1117100322  W2        5563            0.0000000000
     14249      4750  TIP3      H1            -13.8782905324        4.3943051950       11.6933400322  W2        5563            0.0000000000
     14250      4750  TIP3      H2            -14.3789905324        2.9819251950       11.4780300322  W2        5563            0.0000000000
     14251      4751  TIP3      OH2            -6.1991305324        3.6650151950       10.5125400322  W2        5564            0.0000000000
     14252      4751  TIP3      H1             -5.5527005324        3.3363351950       11.1373000322  W2        5564            0.0000000000
     14253      4751  TIP3      H2             -5.6891905324        4.1829151950        9.8896800322  W2        5564            0.0000000000
     14254      4752  TIP3      OH2           -17.3012505324        5.9310351950       12.8738500322  W2        5565            0.0000000000
     14255      4752  TIP3      H1            -16.6475905324        5.3812051950       13.3058600322  W2        5565            0.0000000000
     14256      4752  TIP3      H2            -17.2773205324        5.6569351950       11.9570500322  W2        5565            0.0000000000
     14257      4753  TIP3      OH2           -12.1448005324        7.4811651950       12.0890000322  W2        5566            0.0000000000
     14258      4753  TIP3      H1            -11.5287005324        6.9547051950       12.5984000322  W2        5566            0.0000000000
     14259      4753  TIP3      H2            -12.7309205324        6.8410351950       11.6853600322  W2        5566            0.0000000000
     14260      4754  TIP3      OH2            -7.7422305324       11.9524051950        9.7297000322  W2        5569            0.0000000000
     14261      4754  TIP3      H1             -8.0377205324       11.6296351950        8.8783900322  W2        5569            0.0000000000
     14262      4754  TIP3      H2             -8.0664505324       12.8520751950        9.7709600322  W2        5569            0.0000000000
     14263      4755  TIP3      OH2            -4.4352905324        2.9559451950       12.4931300322  W2        5571            0.0000000000
     14264      4755  TIP3      H1             -4.6504905324        2.1902851950       13.0257300322  W2        5571            0.0000000000
     14265      4755  TIP3      H2             -3.7795505324        3.4284051950       13.0059800322  W2        5571            0.0000000000
     14266      4756  TIP3      OH2           -15.5174805324        4.3444751950       14.1380100322  W2        5572            0.0000000000
     14267      4756  TIP3      H1            -14.9038505324        4.9772351950       14.5112500322  W2        5572            0.0000000000
     14268      4756  TIP3      H2            -15.0054105324        3.8719751950       13.4817000322  W2        5572            0.0000000000
     14269      4757  TIP3      OH2           -18.0135505324       11.7629551950        8.0422400322  W2        5574            0.0000000000
     14270      4757  TIP3      H1            -18.2854605324       11.9920551950        7.1535300322  W2        5574            0.0000000000
     14271      4757  TIP3      H2            -17.9679805324       12.6008351950        8.5027700322  W2        5574            0.0000000000
     14272      4758  TIP3      OH2            -4.3885805324       13.3845451950       14.7550900322  W2        5575            0.0000000000
     14273      4758  TIP3      H1             -5.3302105324       13.4429351950       14.9167800322  W2        5575            0.0000000000
     14274      4758  TIP3      H2             -4.1119705324       14.2905951950       14.6180600322  W2        5575            0.0000000000
     14275      4759  TIP3      OH2           -11.0847405324       -0.2421948050       13.6382800322  W2        5577            0.0000000000
     14276      4759  TIP3      H1            -11.2023205324       -1.1905948050       13.5841100322  W2        5577            0.0000000000
     14277      4759  TIP3      H2            -11.9397305324        0.0904151950       13.9113900322  W2        5577            0.0000000000
     14278      4760  TIP3      OH2            -6.1364605324       15.1658951950       11.3802500322  W2        5578            0.0000000000
     14279      4760  TIP3      H1             -5.7112305324       14.4586851950       10.8952100322  W2        5578            0.0000000000
     14280      4760  TIP3      H2             -5.8194605324       15.9671651950       10.9634700322  W2        5578            0.0000000000
     14281      4761  TIP3      OH2            -4.9768105324       13.0667451950        9.8889100322  W2        5579            0.0000000000
     14282      4761  TIP3      H1             -5.2343305324       12.3767551950        9.2775000322  W2        5579            0.0000000000
     14283      4761  TIP3      H2             -4.9057305324       12.6238651950       10.7345000322  W2        5579            0.0000000000
     14284      4762  TIP3      OH2            -8.8182505324        8.5953651950        8.1388600322  W2        5581            0.0000000000
     14285      4762  TIP3      H1             -9.5297005324        9.1303351950        7.7869100322  W2        5581            0.0000000000
     14286      4762  TIP3      H2             -8.1272905324        8.6505751950        7.4787500322  W2        5581            0.0000000000
     14287      4763  TIP3      OH2            -8.7643305324        7.0527951950        5.1773600322  W2        5582            0.0000000000
     14288      4763  TIP3      H1             -8.0633405324        7.0754851950        5.8287600322  W2        5582            0.0000000000
     14289      4763  TIP3      H2             -8.4620405324        6.4247651950        4.5212900322  W2        5582            0.0000000000
     14290      4764  TIP3      OH2            -5.4124805324        8.8046951950        9.0904500322  W2        5584            0.0000000000
     14291      4764  TIP3      H1             -6.1443805324        9.0330651950        9.6635100322  W2        5584            0.0000000000
     14292      4764  TIP3      H2             -4.9652605324        8.0909651950        9.5452000322  W2        5584            0.0000000000
     14293      4765  TIP3      OH2           -13.7671105324        9.4353151950       10.9729500322  W2        5586            0.0000000000
     14294      4765  TIP3      H1            -14.0975905324        9.0646551950       10.1546500322  W2        5586            0.0000000000
     14295      4765  TIP3      H2            -13.1787005324        8.7647151950       11.3197800322  W2        5586            0.0000000000
     14296      4766  TIP3      OH2           -12.4003605324       12.8633751950       13.6541700322  W2        5587            0.0000000000
     14297      4766  TIP3      H1            -12.4952305324       12.2846851950       12.8976300322  W2        5587            0.0000000000
     14298      4766  TIP3      H2            -11.6710005324       12.4919451950       14.1504500322  W2        5587            0.0000000000
     14299      4767  TIP3      OH2           -13.4005605324        8.2038751950       14.6064500322  W2        5588            0.0000000000
     14300      4767  TIP3      H1            -12.8353105324        8.3252951950       13.8435700322  W2        5588            0.0000000000
     14301      4767  TIP3      H2            -13.0816705324        8.8413751950       15.2453000322  W2        5588            0.0000000000
     14302      4768  TIP3      OH2            -6.5415305324        7.9669851950        6.7755700322  W2        5591            0.0000000000
     14303      4768  TIP3      H1             -5.9619805324        8.1170151950        7.5224600322  W2        5591            0.0000000000
     14304      4768  TIP3      H2             -6.1275305324        8.4377251950        6.0522100322  W2        5591            0.0000000000
     14305      4769  TIP3      OH2            -8.8150405324       14.7038351950       10.2108800322  W2        5593            0.0000000000
     14306      4769  TIP3      H1             -8.3412805324       14.9994651950       10.9883000322  W2        5593            0.0000000000
     14307      4769  TIP3      H2             -9.3781105324       15.4419951950        9.9778400322  W2        5593            0.0000000000
     14308      4770  TIP3      OH2            -2.8426905324       -0.2829748050        6.5885400322  W2        5595            0.0000000000
     14309      4770  TIP3      H1             -3.7426205324       -0.1440748050        6.8836000322  W2        5595            0.0000000000
     14310      4770  TIP3      H2             -2.5908505324        0.5484851950        6.1867100322  W2        5595            0.0000000000
     14311      4771  TIP3      OH2           -14.7768405324        8.5047451950        8.5622300322  W2        5596            0.0000000000
     14312      4771  TIP3      H1            -15.0687105324        9.2729151950        8.0713600322  W2        5596            0.0000000000
     14313      4771  TIP3      H2            -15.4513205324        7.8453651950        8.3993700322  W2        5596            0.0000000000
     14314      4772  TIP3      OH2            -1.6535505324       14.0832651950        4.9649300322  W2        5597            0.0000000000
     14315      4772  TIP3      H1             -1.5802005324       15.0222851950        5.1354600322  W2        5597            0.0000000000
     14316      4772  TIP3      H2             -0.7480405324       13.7781251950        4.9086600322  W2        5597            0.0000000000
     14317      4773  TIP3      OH2           -18.9335605324       13.6480451950       14.2612300322  W2        5599            0.0000000000
     14318      4773  TIP3      H1            -17.9875005324       13.5037451950       14.2421800322  W2        5599            0.0000000000
     14319      4773  TIP3      H2            -19.0459305324       14.4323251950       14.7983500322  W2        5599            0.0000000000
     14320      4774  TIP3      OH2            -9.3427305324       17.6603051950        8.6258000322  W2        5602            0.0000000000
     14321      4774  TIP3      H1             -9.4181305324       17.5390251950        7.6793200322  W2        5602            0.0000000000
     14322      4774  TIP3      H2             -9.3098605324       18.6095751950        8.7442600322  W2        5602            0.0000000000
     14323      4775  TIP3      OH2           -15.6893505324       16.4490051950       10.4067000322  W2        5603            0.0000000000
     14324      4775  TIP3      H1            -15.5373105324       16.1010451950       11.2853500322  W2        5603            0.0000000000
     14325      4775  TIP3      H2            -16.5403105324       16.0927351950       10.1514200322  W2        5603            0.0000000000
     14326      4776  TIP3      OH2            -6.2411305324       16.8143251950        5.6280400322  W2        5604            0.0000000000
     14327      4776  TIP3      H1             -5.8662905324       16.0699351950        5.1573000322  W2        5604            0.0000000000
     14328      4776  TIP3      H2             -6.2367605324       16.5443851950        6.5463700322  W2        5604            0.0000000000
     14329      4777  TIP3      OH2            -6.5723205324       16.7400351950        8.3772600322  W2        5605            0.0000000000
     14330      4777  TIP3      H1             -7.5073405324       16.8402251950        8.5559600322  W2        5605            0.0000000000
     14331      4777  TIP3      H2             -6.2921305324       16.0306351950        8.9555800322  W2        5605            0.0000000000
     14332      4778  TIP3      OH2           -13.8159805324        0.6612551950       14.4159100322  W2        5608            0.0000000000
     14333      4778  TIP3      H1            -14.6776105324        0.5740751950       14.0082000322  W2        5608            0.0000000000
     14334      4778  TIP3      H2            -13.8384105324        1.5172651950       14.8436700322  W2        5608            0.0000000000
     14335      4779  TIP3      OH2            -5.0642205324        8.9998151950        4.4053600322  W2        5611            0.0000000000
     14336      4779  TIP3      H1             -5.0221405324        8.7772051950        3.4753600322  W2        5611            0.0000000000
     14337      4779  TIP3      H2             -4.2150105324        9.3985251950        4.5953500322  W2        5611            0.0000000000
     14338      4780  TIP3      OH2            -9.4914705324        2.8756351950        5.0756900322  W2        5612            0.0000000000
     14339      4780  TIP3      H1             -9.7449905324        2.8947951950        5.9985000322  W2        5612            0.0000000000
     14340      4780  TIP3      H2             -9.7482605324        2.0041751950        4.7743100322  W2        5612            0.0000000000
     14341      4781  TIP3      OH2           -13.7280605324        5.8477151950       10.4229300322  W2        5614            0.0000000000
     14342      4781  TIP3      H1            -14.6207705324        5.5073251950       10.3643100322  W2        5614            0.0000000000
     14343      4781  TIP3      H2            -13.2774005324        5.4708051950        9.6672500322  W2        5614            0.0000000000
     14344      4782  TIP3      OH2            -8.1925105324        6.2637451950        9.2400100322  W2        5615            0.0000000000
     14345      4782  TIP3      H1             -8.6014805324        7.0786051950        8.9484900322  W2        5615            0.0000000000
     14346      4782  TIP3      H2             -7.4718905324        6.1237551950        8.6257200322  W2        5615            0.0000000000
     14347      4783  TIP3      OH2            -7.1877405324        5.7097851950       12.0539800322  W2        5617            0.0000000000
     14348      4783  TIP3      H1             -7.3832905324        6.3154651950       11.3390400322  W2        5617            0.0000000000
     14349      4783  TIP3      H2             -7.0064805324        4.8763051950       11.6196100322  W2        5617            0.0000000000
     14350      4784  TIP3      OH2           -12.6091805324        3.3212851950        4.1767300322  W2        5619            0.0000000000
     14351      4784  TIP3      H1            -13.0401105324        2.8762951950        4.9064700322  W2        5619            0.0000000000
     14352      4784  TIP3      H2            -13.3273105324        3.6929151950        3.6644800322  W2        5619            0.0000000000
     14353      4785  TIP3      OH2           -19.3668405324        3.0632351950       11.2286000322  W2        5620            0.0000000000
     14354      4785  TIP3      H1            -18.7360705324        3.0344451950       11.9479900322  W2        5620            0.0000000000
     14355      4785  TIP3      H2            -18.9174105324        2.6381051950       10.4981900322  W2        5620            0.0000000000
     14356      4786  TIP3      OH2           -18.0926305324        3.8094351950        6.6526400322  W2        5621            0.0000000000
     14357      4786  TIP3      H1            -17.6184605324        4.4004251950        6.0677300322  W2        5621            0.0000000000
     14358      4786  TIP3      H2            -18.8099905324        4.3397251950        6.9996500322  W2        5621            0.0000000000
     14359      4787  TIP3      OH2           -11.1465305324        3.2754651950       11.5093400322  W2        5623            0.0000000000
     14360      4787  TIP3      H1            -12.0574205324        3.3321451950       11.7979400322  W2        5623            0.0000000000
     14361      4787  TIP3      H2            -10.6412405324        3.2150151950       12.3200600322  W2        5623            0.0000000000
     14362      4788  TIP3      OH2           -16.3181905324        4.9040951950       10.3361000322  W2        5624            0.0000000000
     14363      4788  TIP3      H1            -17.2073905324        5.0036451950        9.9960600322  W2        5624            0.0000000000
     14364      4788  TIP3      H2            -16.0217005324        4.0623951950        9.9898900322  W2        5624            0.0000000000
     14365      4789  TIP3      OH2           -12.6650105324        4.9043551950        7.9925600322  W2        5625            0.0000000000
     14366      4789  TIP3      H1            -11.7334605324        5.0333551950        8.1708700322  W2        5625            0.0000000000
     14367      4789  TIP3      H2            -12.8799805324        5.5737851950        7.3430300322  W2        5625            0.0000000000
     14368      4790  TIP3      OH2            -6.7413405324        2.5100951950       14.7735200322  W2        5626            0.0000000000
     14369      4790  TIP3      H1             -7.4181805324        2.6414051950       15.4374900322  W2        5626            0.0000000000
     14370      4790  TIP3      H2             -7.2268505324        2.3550451950       13.9632900322  W2        5626            0.0000000000
     14371      4791  TIP3      OH2           -13.9909905324        6.0985751950        5.5591700322  W2        5627            0.0000000000
     14372      4791  TIP3      H1            -14.5334805324        5.7189551950        4.8679300322  W2        5627            0.0000000000
     14373      4791  TIP3      H2            -13.1575005324        6.2930451950        5.1305800322  W2        5627            0.0000000000
     14374      4792  TIP3      OH2            -9.8265605324        6.0627651950       13.3963000322  W2        5630            0.0000000000
     14375      4792  TIP3      H1             -9.2622205324        5.5164251950       12.8492600322  W2        5630            0.0000000000
     14376      4792  TIP3      H2             -9.9742205324        5.5409551950       14.1850600322  W2        5630            0.0000000000
     14377      4793  TIP3      OH2           -14.8245905324        2.1993751950        9.8147800322  W2        5631            0.0000000000
     14378      4793  TIP3      H1            -15.1416405324        1.2969051950        9.7793200322  W2        5631            0.0000000000
     14379      4793  TIP3      H2            -14.0431805324        2.2011151950        9.2619400322  W2        5631            0.0000000000
     14380      4794  TIP3      OH2           -10.6557105324       10.6641451950        7.4949800322  W2        5633            0.0000000000
     14381      4794  TIP3      H1            -11.4006105324       10.1566751950        7.1727700322  W2        5633            0.0000000000
     14382      4794  TIP3      H2            -10.7899905324       10.7129451950        8.4414600322  W2        5633            0.0000000000
     14383      4795  TIP3      OH2            -6.7580305324        3.4781351950        5.6942400322  W2        5635            0.0000000000
     14384      4795  TIP3      H1             -7.6966105324        3.5896951950        5.5431200322  W2        5635            0.0000000000
     14385      4795  TIP3      H2             -6.4608205324        4.3348251950        6.0008100322  W2        5635            0.0000000000
     14386      4796  TIP3      OH2            -6.0396805324        5.3454051950        7.3549800322  W2        5637            0.0000000000
     14387      4796  TIP3      H1             -5.1477805324        5.2079051950        7.6741000322  W2        5637            0.0000000000
     14388      4796  TIP3      H2             -5.9833205324        6.1360151950        6.8183300322  W2        5637            0.0000000000
     14389      4797  TIP3      OH2           -15.5308805324        9.9591451950       13.2647700322  W2        5638            0.0000000000
     14390      4797  TIP3      H1            -14.7861605324        9.9567151950       12.6634200322  W2        5638            0.0000000000
     14391      4797  TIP3      H2            -15.4532205324        9.1355251950       13.7462800322  W2        5638            0.0000000000
     14392      4798  TIP3      OH2            -8.5303005324       12.1225751950        6.5204400322  W2        5639            0.0000000000
     14393      4798  TIP3      H1             -8.8254605324       12.9493651950        6.9019200322  W2        5639            0.0000000000
     14394      4798  TIP3      H2             -9.2333005324       11.5032651950        6.7165800322  W2        5639            0.0000000000
     14395      4799  TIP3      OH2            -1.1548105324        5.5548151950        7.0496500322  W2        5643            0.0000000000
     14396      4799  TIP3      H1             -1.7091805324        5.1586151950        6.3774000322  W2        5643            0.0000000000
     14397      4799  TIP3      H2             -1.0544505324        6.4653351950        6.7719800322  W2        5643            0.0000000000
     14398      4800  TIP3      OH2            -2.8596405324       14.3408551950        7.5148600322  W2        5645            0.0000000000
     14399      4800  TIP3      H1             -3.2325305324       13.5152351950        7.8239200322  W2        5645            0.0000000000
     14400      4800  TIP3      H2             -2.5822905324       14.1577951950        6.6172000322  W2        5645            0.0000000000
     14401      4801  TIP3      OH2            -5.6992505324        9.1488051950       14.5360500322  W2        5646            0.0000000000
     14402      4801  TIP3      H1             -6.6275605324        8.9169951950       14.5089800322  W2        5646            0.0000000000
     14403      4801  TIP3      H2             -5.2481405324        8.3717851950       14.2059300322  W2        5646            0.0000000000
     14404      4802  TIP3      OH2           -13.1559405324       13.4769651950       10.6689200322  W2        5647            0.0000000000
     14405      4802  TIP3      H1            -12.6287205324       14.2504051950       10.4688000322  W2        5647            0.0000000000
     14406      4802  TIP3      H2            -14.0360905324       13.7018851950       10.3673200322  W2        5647            0.0000000000
     14407      4803  TIP3      OH2           -17.4011705324        8.3393751950        5.2561600322  W2        5648            0.0000000000
     14408      4803  TIP3      H1            -16.7851805324        8.9660951950        5.6356400322  W2        5648            0.0000000000
     14409      4803  TIP3      H2            -18.2629105324        8.6553551950        5.5278100322  W2        5648            0.0000000000
     14410      4804  TIP3      OH2           -11.7287105324       11.1399551950       10.2453500322  W2        5649            0.0000000000
     14411      4804  TIP3      H1            -11.9697105324       12.0653951950       10.2868800322  W2        5649            0.0000000000
     14412      4804  TIP3      H2            -12.4693505324       10.6810851950       10.6417400322  W2        5649            0.0000000000
     14413      4805  TIP3      OH2           -13.0456305324       16.1617151950        9.7905700322  W2        5651            0.0000000000
     14414      4805  TIP3      H1            -13.9955805324       16.2674551950        9.8419000322  W2        5651            0.0000000000
     14415      4805  TIP3      H2            -12.6938205324       16.9824551950       10.1353200322  W2        5651            0.0000000000
     14416      4806  TIP3      OH2            -5.4670805324       12.3174351950        5.3349200322  W2        5653            0.0000000000
     14417      4806  TIP3      H1             -5.1137705324       11.9374151950        6.1392700322  W2        5653            0.0000000000
     14418      4806  TIP3      H2             -6.4157305324       12.2239151950        5.4218500322  W2        5653            0.0000000000
     14419      4807  TIP3      OH2            -0.9636405324       16.7966851950        5.5359400322  W2        5655            0.0000000000
     14420      4807  TIP3      H1             -0.2198505324       17.3827351950        5.3961000322  W2        5655            0.0000000000
     14421      4807  TIP3      H2             -1.6578305324       17.3652651950        5.8691800322  W2        5655            0.0000000000
     14422      4808  TIP3      OH2            -4.6011505324       10.9896351950        7.5617100322  W2        5657            0.0000000000
     14423      4808  TIP3      H1             -4.8783905324       10.2615651950        8.1178200322  W2        5657            0.0000000000
     14424      4808  TIP3      H2             -3.6738505324       11.1088351950        7.7669700322  W2        5657            0.0000000000
     14425      4809  TIP3      OH2           -11.3763005324       13.4290451950        3.7819200322  W2        5659            0.0000000000
     14426      4809  TIP3      H1            -11.1373205324       12.6808551950        3.2348100322  W2        5659            0.0000000000
     14427      4809  TIP3      H2            -11.6451705324       13.0412151950        4.6147000322  W2        5659            0.0000000000
     14428      4810  TIP3      OH2           -12.4392405324       12.9994251950        6.2381800322  W2        5660            0.0000000000
     14429      4810  TIP3      H1            -12.2924405324       12.4794051950        7.0282700322  W2        5660            0.0000000000
     14430      4810  TIP3      H2            -12.4420705324       13.9061851950        6.5447700322  W2        5660            0.0000000000
     14431      4811  TIP3      OH2           -15.9861305324       10.2517551950        6.7487200322  W2        5661            0.0000000000
     14432      4811  TIP3      H1            -16.6722005324       10.6040051950        7.3156900322  W2        5661            0.0000000000
     14433      4811  TIP3      H2            -15.4633405324       11.0147151950        6.5021500322  W2        5661            0.0000000000
     14434      4812  TIP3      OH2            -7.3701305324        2.5663051950        8.1248500322  W2        5663            0.0000000000
     14435      4812  TIP3      H1             -7.1503005324        3.0378451950        7.3213900322  W2        5663            0.0000000000
     14436      4812  TIP3      H2             -6.8117305324        2.9605651950        8.7949100322  W2        5663            0.0000000000
     14437      4813  TIP3      OH2            -9.7015205324       14.6967851950        6.9876000322  W2        5664            0.0000000000
     14438      4813  TIP3      H1            -10.5179105324       15.1937551950        7.0400300322  W2        5664            0.0000000000
     14439      4813  TIP3      H2             -9.1718905324       15.1721351950        6.3474800322  W2        5664            0.0000000000
     14440      4814  TIP3      OH2           -10.1701405324        4.2941851950        8.9596900322  W2        5665            0.0000000000
     14441      4814  TIP3      H1             -9.3578805324        4.7985051950        9.0058600322  W2        5665            0.0000000000
     14442      4814  TIP3      H2            -10.4148405324        4.1491551950        9.8736500322  W2        5665            0.0000000000
     14443      4815  TIP3      OH2            -9.2864705324        1.3754851950        9.8978000322  W2        5667            0.0000000000
     14444      4815  TIP3      H1             -9.6331205324        1.9925451950       10.5422300322  W2        5667            0.0000000000
     14445      4815  TIP3      H2             -8.6277805324        1.8760551950        9.4163500322  W2        5667            0.0000000000
     14446      4816  TIP3      OH2           -12.3632105324       15.7405051950        6.9692900322  W2        5668            0.0000000000
     14447      4816  TIP3      H1            -12.2023405324       16.5402551950        6.4685500322  W2        5668            0.0000000000
     14448      4816  TIP3      H2            -12.5604305324       16.0471051950        7.8543500322  W2        5668            0.0000000000
     14449      4817  TIP3      OH2           -13.6287705324        2.4384251950        6.5850500322  W2        5669            0.0000000000
     14450      4817  TIP3      H1            -13.7122905324        3.3267351950        6.9316900322  W2        5669            0.0000000000
     14451      4817  TIP3      H2            -12.7387405324        2.1730951950        6.8167300322  W2        5669            0.0000000000
     14452      4818  TIP3      OH2            -4.8278205324        6.9375851950       13.0750500322  W2        5671            0.0000000000
     14453      4818  TIP3      H1             -5.6253805324        6.5226051950       12.7465500322  W2        5671            0.0000000000
     14454      4818  TIP3      H2             -4.3827105324        6.2469551950       13.5661000322  W2        5671            0.0000000000
     14455      4819  TIP3      OH2           -15.3702405324       12.8656451950        5.6455000322  W2        5672            0.0000000000
     14456      4819  TIP3      H1            -14.7780905324       13.5651251950        5.9217400322  W2        5672            0.0000000000
     14457      4819  TIP3      H2            -14.9109405324       12.4325951950        4.9259600322  W2        5672            0.0000000000
     14458      4820  TIP3      OH2           -17.0543205324        5.5299451950        4.7614400322  W2        5673            0.0000000000
     14459      4820  TIP3      H1            -17.0990605324        6.4692551950        4.9401400322  W2        5673            0.0000000000
     14460      4820  TIP3      H2            -17.9420005324        5.2944351950        4.4916500322  W2        5673            0.0000000000
     14461      4821  TIP3      OH2            -3.7413605324       16.1938351950       14.6974000322  W2        5674            0.0000000000
     14462      4821  TIP3      H1             -3.8969305324       16.8722751950       14.0403300322  W2        5674            0.0000000000
     14463      4821  TIP3      H2             -2.8087205324       16.2657651950       14.9004600322  W2        5674            0.0000000000
     14464      4822  TIP3      OH2           -16.2461205324        0.3116051950       13.4345400322  W2        5675            0.0000000000
     14465      4822  TIP3      H1            -16.4751405324        0.3708551950       12.5070400322  W2        5675            0.0000000000
     14466      4822  TIP3      H2            -16.6887805324       -0.4798448050       13.7409500322  W2        5675            0.0000000000
     14467      4823  TIP3      OH2           -17.3157905324       14.2523151950        9.5951200322  W2        5676            0.0000000000
     14468      4823  TIP3      H1            -18.1479305324       14.7245851950        9.6222600322  W2        5676            0.0000000000
     14469      4823  TIP3      H2            -16.7699605324       14.7620751950        8.9964300322  W2        5676            0.0000000000
     14470      4824  TIP3      OH2            -9.3381205324       15.2921851950        3.9205200322  W2        5679            0.0000000000
     14471      4824  TIP3      H1             -9.9820205324       14.6610451950        4.2418900322  W2        5679            0.0000000000
     14472      4824  TIP3      H2             -8.5762905324       14.7609851950        3.6888700322  W2        5679            0.0000000000
     14473      4825  TIP3      OH2            -4.7338305324       15.1091751950        4.1543200322  W2        5681            0.0000000000
     14474      4825  TIP3      H1             -4.4507905324       14.3146951950        4.6070100322  W2        5681            0.0000000000
     14475      4825  TIP3      H2             -3.9940405324       15.3422751950        3.5934300322  W2        5681            0.0000000000
     14476      4826  TIP3      OH2           -13.7791005324       11.0186651950        4.0118100322  W2        5683            0.0000000000
     14477      4826  TIP3      H1            -13.7146905324       10.2246251950        4.5424500322  W2        5683            0.0000000000
     14478      4826  TIP3      H2            -13.1261805324       10.8999451950        3.3220100322  W2        5683            0.0000000000
     14479      4827  TIP3      OH2            -8.4267605324       12.0658351950        3.7476100322  W2        5685            0.0000000000
     14480      4827  TIP3      H1             -8.6953505324       12.2460451950        4.6485000322  W2        5685            0.0000000000
     14481      4827  TIP3      H2             -8.6332005324       11.1404551950        3.6161900322  W2        5685            0.0000000000
     14482      4828  TIP3      OH2           -12.6297205324        8.9912851950        6.3176100322  W2        5688            0.0000000000
     14483      4828  TIP3      H1            -13.0895205324        8.5071151950        7.0034600322  W2        5688            0.0000000000
     14484      4828  TIP3      H2            -12.3748505324        8.3228251950        5.6816600322  W2        5688            0.0000000000
     14485      4829  TIP3      OH2           -11.5586805324        7.2344651950        4.5799300322  W2        5690            0.0000000000
     14486      4829  TIP3      H1            -11.7391805324        7.0795851950        3.6527600322  W2        5690            0.0000000000
     14487      4829  TIP3      H2            -10.6086305324        7.3423351950        4.6247200322  W2        5690            0.0000000000
     14488      4830  TIP3      OH2            -2.1688505324        9.5888851950        4.0257400322  W2        5692            0.0000000000
     14489      4830  TIP3      H1             -2.4423705324        9.1644351950        3.2125700322  W2        5692            0.0000000000
     14490      4830  TIP3      H2             -2.1294405324       10.5203351950        3.8087800322  W2        5692            0.0000000000
     14491      4831  TIP3      OH2           -11.6615105324       17.9248351950        5.5812900322  W2        5706            0.0000000000
     14492      4831  TIP3      H1            -10.7284405324       18.0827051950        5.7251300322  W2        5706            0.0000000000
     14493      4831  TIP3      H2            -11.9256305324       18.6001351950        4.9564400322  W2        5706            0.0000000000
     14494      4832  TIP3      OH2           -18.0930205324       12.5612151950        5.0641000322  W2        5707            0.0000000000
     14495      4832  TIP3      H1            -17.1791005324       12.6401051950        5.3374900322  W2        5707            0.0000000000
     14496      4832  TIP3      H2            -18.0857105324       11.8741751950        4.3976600322  W2        5707            0.0000000000
     14497      4833  TIP3      OH2           -19.4439605324       17.9540651950       10.1414900322  W2        5708            0.0000000000
     14498      4833  TIP3      H1            -20.0912505324       17.4922351950        9.6086100322  W2        5708            0.0000000000
     14499      4833  TIP3      H2            -19.0895005324       17.2823951950       10.7241100322  W2        5708            0.0000000000
     14500      4834  TIP3      OH2           -18.5740405324       16.0347651950       11.9461100322  W2        5709            0.0000000000
     14501      4834  TIP3      H1            -18.9083605324       15.1544951950       12.1181300322  W2        5709            0.0000000000
     14502      4834  TIP3      H2            -18.3518005324       16.3802651950       12.8106700322  W2        5709            0.0000000000
     14503      4835  TIP3      OH2            -1.7105705324       10.4576951950        8.0007800322  W2        5713            0.0000000000
     14504      4835  TIP3      H1             -0.8604305324       10.8787851950        8.1279400322  W2        5713            0.0000000000
     14505      4835  TIP3      H2             -1.7050605324        9.7177051950        8.6079200322  W2        5713            0.0000000000
     14506      4836  TIP3      OH2            -1.3160105324        8.5114351950        9.8243500322  W2        5714            0.0000000000
     14507      4836  TIP3      H1             -2.0425505324        8.0316951950       10.2221100322  W2        5714            0.0000000000
     14508      4836  TIP3      H2             -0.7346805324        8.7169051950       10.5565100322  W2        5714            0.0000000000
     14509      4837  TIP3      OH2            -1.5568905324       11.2961851950       14.7721100322  W2        5715            0.0000000000
     14510      4837  TIP3      H1             -0.7234705324       10.9181851950       14.4914700322  W2        5715            0.0000000000
     14511      4837  TIP3      H2             -1.4448605324       12.2393051950       14.6530200322  W2        5715            0.0000000000
     14512      4838  TIP3      OH2            -1.0477005324        8.4122851950        6.2154800322  W2        5717            0.0000000000
     14513      4838  TIP3      H1             -1.5695905324        8.7686951950        5.4965700322  W2        5717            0.0000000000
     14514      4838  TIP3      H2             -1.0807805324        9.0870651950        6.8935700322  W2        5717            0.0000000000
     14515      4839  TIP3      OH2            -2.6988005324        5.6518451950        4.7661900322  W2        5718            0.0000000000
     14516      4839  TIP3      H1             -2.6023605324        6.3185451950        4.0861600322  W2        5718            0.0000000000
     14517      4839  TIP3      H2             -2.8388405324        4.8364751950        4.2847400322  W2        5718            0.0000000000
     14518      4840  TIP3      OH2            -3.5293305324        7.0320851950       10.3872200322  W2        5719            0.0000000000
     14519      4840  TIP3      H1             -3.6794505324        6.0869451950       10.3670000322  W2        5719            0.0000000000
     14520      4840  TIP3      H2             -3.8828805324        7.3132251950       11.2311300322  W2        5719            0.0000000000
     14521      4841  TIP3      OH2           -18.4940905324        9.1103051950       14.3976000322  W2        5720            0.0000000000
     14522      4841  TIP3      H1            -18.3098005324        9.0284751950       13.4618900322  W2        5720            0.0000000000
     14523      4841  TIP3      H2            -17.6448005324        8.9860051950       14.8212400322  W2        5720            0.0000000000
     14524      4842  TIP3      OH2            -3.4514205324        3.0598251950        3.8837400322  W2        5723            0.0000000000
     14525      4842  TIP3      H1             -2.8408405324        2.6885051950        4.5205600322  W2        5723            0.0000000000
     14526      4842  TIP3      H2             -4.2882705324        2.6385151950        4.0797400322  W2        5723            0.0000000000
     14527      4843  TIP3      OH2            -3.8188505324        4.6146651950        8.8497300322  W2        5724            0.0000000000
     14528      4843  TIP3      H1             -3.5391405324        3.7077051950        8.9739000322  W2        5724            0.0000000000
     14529      4843  TIP3      H2             -3.0596805324        5.0488151950        8.4606500322  W2        5724            0.0000000000
     14530      4844  TIP3      OH2            -3.2070205324        5.1964051950       14.2856200322  W2        5725            0.0000000000
     14531      4844  TIP3      H1             -2.2742205324        5.4083951950       14.2512200322  W2        5725            0.0000000000
     14532      4844  TIP3      H2             -3.4422705324        5.2976151950       15.2079200322  W2        5725            0.0000000000
     14533      4845  TIP3      OH2            -3.2053705324        1.8775951950        8.8979300322  W2        5729            0.0000000000
     14534      4845  TIP3      H1             -3.0228705324        1.4287451950        9.7234300322  W2        5729            0.0000000000
     14535      4845  TIP3      H2             -3.8050805324        1.2930351950        8.4343900322  W2        5729            0.0000000000
     14536      4846  TIP3      OH2           -17.6753605324        2.6929651950       13.4297700322  W2        5730            0.0000000000
     14537      4846  TIP3      H1            -17.2302005324        1.9012151950       13.7317400322  W2        5730            0.0000000000
     14538      4846  TIP3      H2            -17.2090605324        3.4094851950       13.8603300322  W2        5730            0.0000000000
     14539      4847  TIP3      OH2           -19.3713305324        5.6922651950       14.4987900322  W2        5731            0.0000000000
     14540      4847  TIP3      H1            -18.8793505324        5.4713151950       13.7079900322  W2        5731            0.0000000000
     14541      4847  TIP3      H2            -19.0092405324        6.5326051950       14.7797400322  W2        5731            0.0000000000
     14542      4848  TIP3      OH2            -1.3387505324        1.9454051950        5.4259600322  W2        5733            0.0000000000
     14543      4848  TIP3      H1             -0.9264905324        1.2239751950        4.9507600322  W2        5733            0.0000000000
     14544      4848  TIP3      H2             -0.6571005324        2.6148651950        5.4843900322  W2        5733            0.0000000000
     14545      4849  TIP3      OH2           -19.0576805324        1.9501751950        8.5530300322  W2        5734            0.0000000000
     14546      4849  TIP3      H1            -19.9828405324        2.1588351950        8.4235800322  W2        5734            0.0000000000
     14547      4849  TIP3      H2            -18.6036905324        2.4342551950        7.8632600322  W2        5734            0.0000000000
     14548      4850  TIP3      OH2            -4.2869605324       16.9343451950       10.4987700322  W2        5735            0.0000000000
     14549      4850  TIP3      H1             -3.6346705324       16.5865551950        9.8906800322  W2        5735            0.0000000000
     14550      4850  TIP3      H2             -3.7765805324       17.4226651950       11.1447400322  W2        5735            0.0000000000
     14551      4851  TIP3      OH2           -17.1314405324       16.7172451950       14.2579700322  W2        5747            0.0000000000
     14552      4851  TIP3      H1            -17.1498405324       16.2917551950       15.1152000322  W2        5747            0.0000000000
     14553      4851  TIP3      H2            -16.3266505324       16.3987451950       13.8491900322  W2        5747            0.0000000000
     14554      4852  TIP3      OH2           -14.9901305324       15.4271151950       12.9129600322  W2        5748            0.0000000000
     14555      4852  TIP3      H1            -15.2090605324       14.5108551950       13.0825600322  W2        5748            0.0000000000
     14556      4852  TIP3      H2            -14.1659105324       15.5671551950       13.3791000322  W2        5748            0.0000000000
     14557      4853  TIP3      OH2           -12.4528805324       15.8970451950       13.7617600322  W2        5749            0.0000000000
     14558      4853  TIP3      H1            -12.2403105324       15.0089451950       13.4748500322  W2        5749            0.0000000000
     14559      4853  TIP3      H2            -12.3883705324       15.8628151950       14.7161600322  W2        5749            0.0000000000
     14560      4854  TIP3      OH2            -8.9445105324        1.5611051950       12.9060900322  W2        5750            0.0000000000
     14561      4854  TIP3      H1             -9.6188305324        0.9316651950       13.1616700322  W2        5750            0.0000000000
     14562      4854  TIP3      H2             -8.3805905324        1.0769951950       12.3028800322  W2        5750            0.0000000000
     14563      4855  TIP3      OH2            -3.8017905324       -0.3314948050       13.0188000322  W2        5751            0.0000000000
     14564      4855  TIP3      H1             -3.1980305324        0.2160451950       12.5169000322  W2        5751            0.0000000000
     14565      4855  TIP3      H2             -4.6715905324       -0.0124548050       12.7782100322  W2        5751            0.0000000000
     14566      4856  TIP3      OH2            -2.0747505324        0.8073751950       11.3518900322  W2        5752            0.0000000000
     14567      4856  TIP3      H1             -1.4630005324        0.2929451950       10.8252500322  W2        5752            0.0000000000
     14568      4856  TIP3      H2             -1.6924105324        1.6845851950       11.3753300322  W2        5752            0.0000000000
     14569      4857  TIP3      OH2           -16.6177605324        0.1951351950       10.7280800322  W2        5753            0.0000000000
     14570      4857  TIP3      H1            -17.3947805324       -0.0393748050       10.2206700322  W2        5753            0.0000000000
     14571      4857  TIP3      H2            -16.0874005324       -0.6016548050       10.7368800322  W2        5753            0.0000000000
     14572      4858  TIP3      OH2           -17.7814205324       -0.0070548050        6.5316900322  W2        5754            0.0000000000
     14573      4858  TIP3      H1            -17.3423505324        0.6039951950        5.9400400322  W2        5754            0.0000000000
     14574      4858  TIP3      H2            -18.4151805324        0.5313551950        7.0056900322  W2        5754            0.0000000000
     14575      4859  TIP3      OH2           -12.0385005324        0.1218451950       10.5413900322  W2        5755            0.0000000000
     14576      4859  TIP3      H1            -11.1641605324        0.5102751950       10.5118200322  W2        5755            0.0000000000
     14577      4859  TIP3      H2            -12.1744205324       -0.0933748050       11.4641100322  W2        5755            0.0000000000
     14578      4860  TIP3      OH2            -6.4816605324        0.1518251950       12.1905600322  W2        5756            0.0000000000
     14579      4860  TIP3      H1             -6.4055005324        0.2469851950       11.2411600322  W2        5756            0.0000000000
     14580      4860  TIP3      H2             -6.7567405324       -0.7558848050       12.3194700322  W2        5756            0.0000000000
     14581      4861  TIP3      OH2            -5.1284005324        0.1776051950        7.8830600322  W2        5757            0.0000000000
     14582      4861  TIP3      H1             -5.8312905324        0.7925251950        7.6732000322  W2        5757            0.0000000000
     14583      4861  TIP3      H2             -5.5732605324       -0.6597248050        8.0141500322  W2        5757            0.0000000000
     14584      4862  TIP3      OH2           -17.8804705324       15.9411651950        7.4292000322  W2        5758            0.0000000000
     14585      4862  TIP3      H1            -18.5654805324       15.9030551950        6.7617100322  W2        5758            0.0000000000
     14586      4862  TIP3      H2            -17.8767505324       16.8539251950        7.7174100322  W2        5758            0.0000000000
     14587      4863  TIP3      OH2           -15.9205105324        1.9090951950        4.9741000322  W2        5759            0.0000000000
     14588      4863  TIP3      H1            -15.4291705324        1.2793351950        4.4466500322  W2        5759            0.0000000000
     14589      4863  TIP3      H2            -15.2968805324        2.2050351950        5.6372200322  W2        5759            0.0000000000
     14590      4864  TIP3      OH2           -10.8945005324        2.2022451950        7.4311500322  W2        5760            0.0000000000
     14591      4864  TIP3      H1            -10.7163705324        1.5555651950        8.1140100322  W2        5760            0.0000000000
     14592      4864  TIP3      H2            -10.9478805324        3.0360151950        7.8982600322  W2        5760            0.0000000000
     14593      4865  TIP3      OH2            -9.0161205324       17.1506551950        5.8268200322  W2        5761            0.0000000000
     14594      4865  TIP3      H1             -8.1501005324       17.5173951950        5.6486400322  W2        5761            0.0000000000
     14595      4865  TIP3      H2             -9.2628405324       16.7114551950        5.0129000322  W2        5761            0.0000000000
     14596      4866  TIP3      OH2            -2.3071605324       16.7136851950        8.5059300322  W2        5762            0.0000000000
     14597      4866  TIP3      H1             -2.5014505324       15.9658951950        7.9408900322  W2        5762            0.0000000000
     14598      4866  TIP3      H2             -2.3461505324       17.4716951950        7.9227200322  W2        5762            0.0000000000
     14599      4867  TIP3      OH2           -16.0623505324       16.8612451950        4.4544100322  W2        5765            0.0000000000
     14600      4867  TIP3      H1            -16.3298905324       17.1475351950        5.3277200322  W2        5765            0.0000000000
     14601      4867  TIP3      H2            -15.2910905324       16.3151651950        4.6066600322  W2        5765            0.0000000000
     14602      4868  TIP3      OH2            11.3164994676        9.3513651950       10.6868300322  W2        5768            0.0000000000
     14603      4868  TIP3      H1             11.4056094676       10.2951851950       10.5545400322  W2        5768            0.0000000000
     14604      4868  TIP3      H2             10.6782594676        9.0760051950       10.0287700322  W2        5768            0.0000000000
     14605      4869  TIP3      OH2            10.2496294676        8.6064351950       14.1056500322  W2        5769            0.0000000000
     14606      4869  TIP3      H1             10.2113794676        7.9600651950       14.8106100322  W2        5769            0.0000000000
     14607      4869  TIP3      H2              9.9272794676        8.1398751950       13.3345200322  W2        5769            0.0000000000
     14608      4870  TIP3      OH2            13.9556494676       11.5454751950       12.4071600322  W2        5771            0.0000000000
     14609      4870  TIP3      H1             13.5149194676       10.8250751950       12.8577200322  W2        5771            0.0000000000
     14610      4870  TIP3      H2             13.9426194676       12.2661951950       13.0369300322  W2        5771            0.0000000000
     14611      4871  TIP3      OH2             3.5414394676       12.6705351950       14.2335500322  W2        5772            0.0000000000
     14612      4871  TIP3      H1              3.1719594676       11.8685851950       13.8639800322  W2        5772            0.0000000000
     14613      4871  TIP3      H2              4.4825494676       12.5020251950       14.2798900322  W2        5772            0.0000000000
     14614      4872  TIP3      OH2             0.1514894676        6.3307951950        9.6264300322  W2        5773            0.0000000000
     14615      4872  TIP3      H1             -0.2961705324        7.1766651950        9.6080800322  W2        5773            0.0000000000
     14616      4872  TIP3      H2             -0.4093905324        5.7512151950        9.1109400322  W2        5773            0.0000000000
     14617      4873  TIP3      OH2             0.8620994676        8.4927551950       11.7522300322  W2        5774            0.0000000000
     14618      4873  TIP3      H1              1.0754494676        7.7229151950       12.2795300322  W2        5774            0.0000000000
     14619      4873  TIP3      H2              1.5998594676        8.5824251950       11.1489900322  W2        5774            0.0000000000
     14620      4874  TIP3      OH2            11.0671994676       16.6496451950       12.6192000322  W2        5775            0.0000000000
     14621      4874  TIP3      H1             11.6868394676       15.9731151950       12.3461200322  W2        5775            0.0000000000
     14622      4874  TIP3      H2             10.8589394676       16.4317251950       13.5276900322  W2        5775            0.0000000000
     14623      4875  TIP3      OH2             8.6390694676       11.0385751950       14.5117500322  W2        5776            0.0000000000
     14624      4875  TIP3      H1              8.9428594676       10.3527151950       13.9171600322  W2        5776            0.0000000000
     14625      4875  TIP3      H2              9.3604694676       11.1574451950       15.1295500322  W2        5776            0.0000000000
     14626      4876  TIP3      OH2            11.7797694676        5.4328151950       14.8392300322  W2        5778            0.0000000000
     14627      4876  TIP3      H1             11.9223594676        4.4865151950       14.8593900322  W2        5778            0.0000000000
     14628      4876  TIP3      H2             11.6736694676        5.6397951950       13.9107200322  W2        5778            0.0000000000
     14629      4877  TIP3      OH2             4.9345994676        3.5344551950       12.1117100322  W2        5779            0.0000000000
     14630      4877  TIP3      H1              4.9777094676        4.3943051950       11.6933400322  W2        5779            0.0000000000
     14631      4877  TIP3      H2              4.4770094676        2.9819251950       11.4780300322  W2        5779            0.0000000000
     14632      4878  TIP3      OH2            12.6568694676        3.6650151950       10.5125400322  W2        5780            0.0000000000
     14633      4878  TIP3      H1             13.3032994676        3.3363351950       11.1373000322  W2        5780            0.0000000000
     14634      4878  TIP3      H2             13.1668094676        4.1829151950        9.8896800322  W2        5780            0.0000000000
     14635      4879  TIP3      OH2             1.5547494676        5.9310351950       12.8738500322  W2        5781            0.0000000000
     14636      4879  TIP3      H1              2.2084094676        5.3812051950       13.3058600322  W2        5781            0.0000000000
     14637      4879  TIP3      H2              1.5786794676        5.6569351950       11.9570500322  W2        5781            0.0000000000
     14638      4880  TIP3      OH2             6.7111994676        7.4811651950       12.0890000322  W2        5782            0.0000000000
     14639      4880  TIP3      H1              7.3272994676        6.9547051950       12.5984000322  W2        5782            0.0000000000
     14640      4880  TIP3      H2              6.1250794676        6.8410351950       11.6853600322  W2        5782            0.0000000000
     14641      4881  TIP3      OH2            11.1137694676       11.9524051950        9.7297000322  W2        5785            0.0000000000
     14642      4881  TIP3      H1             10.8182794676       11.6296351950        8.8783900322  W2        5785            0.0000000000
     14643      4881  TIP3      H2             10.7895494676       12.8520751950        9.7709600322  W2        5785            0.0000000000
     14644      4882  TIP3      OH2            14.4207094676        2.9559451950       12.4931300322  W2        5787            0.0000000000
     14645      4882  TIP3      H1             14.2055094676        2.1902851950       13.0257300322  W2        5787            0.0000000000
     14646      4882  TIP3      H2             15.0764494676        3.4284051950       13.0059800322  W2        5787            0.0000000000
     14647      4883  TIP3      OH2             3.3385194676        4.3444751950       14.1380100322  W2        5788            0.0000000000
     14648      4883  TIP3      H1              3.9521494676        4.9772351950       14.5112500322  W2        5788            0.0000000000
     14649      4883  TIP3      H2              3.8505894676        3.8719751950       13.4817000322  W2        5788            0.0000000000
     14650      4884  TIP3      OH2             0.8424494676       11.7629551950        8.0422400322  W2        5790            0.0000000000
     14651      4884  TIP3      H1              0.5705394676       11.9920551950        7.1535300322  W2        5790            0.0000000000
     14652      4884  TIP3      H2              0.8880194676       12.6008351950        8.5027700322  W2        5790            0.0000000000
     14653      4885  TIP3      OH2            14.4674194676       13.3845451950       14.7550900322  W2        5791            0.0000000000
     14654      4885  TIP3      H1             13.5257894676       13.4429351950       14.9167800322  W2        5791            0.0000000000
     14655      4885  TIP3      H2             14.7440294676       14.2905951950       14.6180600322  W2        5791            0.0000000000
     14656      4886  TIP3      OH2             7.7712594676       -0.2421948050       13.6382800322  W2        5793            0.0000000000
     14657      4886  TIP3      H1              7.6536794676       -1.1905948050       13.5841100322  W2        5793            0.0000000000
     14658      4886  TIP3      H2              6.9162694676        0.0904151950       13.9113900322  W2        5793            0.0000000000
     14659      4887  TIP3      OH2            12.7195394676       15.1658951950       11.3802500322  W2        5794            0.0000000000
     14660      4887  TIP3      H1             13.1447694676       14.4586851950       10.8952100322  W2        5794            0.0000000000
     14661      4887  TIP3      H2             13.0365394676       15.9671651950       10.9634700322  W2        5794            0.0000000000
     14662      4888  TIP3      OH2            13.8791894676       13.0667451950        9.8889100322  W2        5795            0.0000000000
     14663      4888  TIP3      H1             13.6216694676       12.3767551950        9.2775000322  W2        5795            0.0000000000
     14664      4888  TIP3      H2             13.9502694676       12.6238651950       10.7345000322  W2        5795            0.0000000000
     14665      4889  TIP3      OH2            10.0377494676        8.5953651950        8.1388600322  W2        5797            0.0000000000
     14666      4889  TIP3      H1              9.3262994676        9.1303351950        7.7869100322  W2        5797            0.0000000000
     14667      4889  TIP3      H2             10.7287094676        8.6505751950        7.4787500322  W2        5797            0.0000000000
     14668      4890  TIP3      OH2            10.0916694676        7.0527951950        5.1773600322  W2        5798            0.0000000000
     14669      4890  TIP3      H1             10.7926594676        7.0754851950        5.8287600322  W2        5798            0.0000000000
     14670      4890  TIP3      H2             10.3939594676        6.4247651950        4.5212900322  W2        5798            0.0000000000
     14671      4891  TIP3      OH2            13.4435194676        8.8046951950        9.0904500322  W2        5800            0.0000000000
     14672      4891  TIP3      H1             12.7116194676        9.0330651950        9.6635100322  W2        5800            0.0000000000
     14673      4891  TIP3      H2             13.8907394676        8.0909651950        9.5452000322  W2        5800            0.0000000000
     14674      4892  TIP3      OH2             5.0888894676        9.4353151950       10.9729500322  W2        5802            0.0000000000
     14675      4892  TIP3      H1              4.7584094676        9.0646551950       10.1546500322  W2        5802            0.0000000000
     14676      4892  TIP3      H2              5.6772994676        8.7647151950       11.3197800322  W2        5802            0.0000000000
     14677      4893  TIP3      OH2             6.4556394676       12.8633751950       13.6541700322  W2        5803            0.0000000000
     14678      4893  TIP3      H1              6.3607694676       12.2846851950       12.8976300322  W2        5803            0.0000000000
     14679      4893  TIP3      H2              7.1849994676       12.4919451950       14.1504500322  W2        5803            0.0000000000
     14680      4894  TIP3      OH2             5.4554394676        8.2038751950       14.6064500322  W2        5804            0.0000000000
     14681      4894  TIP3      H1              6.0206894676        8.3252951950       13.8435700322  W2        5804            0.0000000000
     14682      4894  TIP3      H2              5.7743294676        8.8413751950       15.2453000322  W2        5804            0.0000000000
     14683      4895  TIP3      OH2            12.3144694676        7.9669851950        6.7755700322  W2        5807            0.0000000000
     14684      4895  TIP3      H1             12.8940194676        8.1170151950        7.5224600322  W2        5807            0.0000000000
     14685      4895  TIP3      H2             12.7284694676        8.4377251950        6.0522100322  W2        5807            0.0000000000
     14686      4896  TIP3      OH2            10.0409594676       14.7038351950       10.2108800322  W2        5809            0.0000000000
     14687      4896  TIP3      H1             10.5147194676       14.9994651950       10.9883000322  W2        5809            0.0000000000
     14688      4896  TIP3      H2              9.4778894676       15.4419951950        9.9778400322  W2        5809            0.0000000000
     14689      4897  TIP3      OH2            16.0133094676       -0.2829748050        6.5885400322  W2        5811            0.0000000000
     14690      4897  TIP3      H1             15.1133794676       -0.1440748050        6.8836000322  W2        5811            0.0000000000
     14691      4897  TIP3      H2             16.2651494676        0.5484851950        6.1867100322  W2        5811            0.0000000000
     14692      4898  TIP3      OH2             4.0791594676        8.5047451950        8.5622300322  W2        5812            0.0000000000
     14693      4898  TIP3      H1              3.7872894676        9.2729151950        8.0713600322  W2        5812            0.0000000000
     14694      4898  TIP3      H2              3.4046794676        7.8453651950        8.3993700322  W2        5812            0.0000000000
     14695      4899  TIP3      OH2            17.2024494676       14.0832651950        4.9649300322  W2        5813            0.0000000000
     14696      4899  TIP3      H1             17.2757994676       15.0222851950        5.1354600322  W2        5813            0.0000000000
     14697      4899  TIP3      H2             18.1079594676       13.7781251950        4.9086600322  W2        5813            0.0000000000
     14698      4900  TIP3      OH2            -0.0775605324       13.6480451950       14.2612300322  W2        5815            0.0000000000
     14699      4900  TIP3      H1              0.8684994676       13.5037451950       14.2421800322  W2        5815            0.0000000000
     14700      4900  TIP3      H2             -0.1899305324       14.4323251950       14.7983500322  W2        5815            0.0000000000
     14701      4901  TIP3      OH2             9.5132694676       17.6603051950        8.6258000322  W2        5818            0.0000000000
     14702      4901  TIP3      H1              9.4378694676       17.5390251950        7.6793200322  W2        5818            0.0000000000
     14703      4901  TIP3      H2              9.5461394676       18.6095751950        8.7442600322  W2        5818            0.0000000000
     14704      4902  TIP3      OH2             3.1666494676       16.4490051950       10.4067000322  W2        5819            0.0000000000
     14705      4902  TIP3      H1              3.3186894676       16.1010451950       11.2853500322  W2        5819            0.0000000000
     14706      4902  TIP3      H2              2.3156894676       16.0927351950       10.1514200322  W2        5819            0.0000000000
     14707      4903  TIP3      OH2            12.6148694676       16.8143251950        5.6280400322  W2        5820            0.0000000000
     14708      4903  TIP3      H1             12.9897094676       16.0699351950        5.1573000322  W2        5820            0.0000000000
     14709      4903  TIP3      H2             12.6192394676       16.5443851950        6.5463700322  W2        5820            0.0000000000
     14710      4904  TIP3      OH2            12.2836794676       16.7400351950        8.3772600322  W2        5821            0.0000000000
     14711      4904  TIP3      H1             11.3486594676       16.8402251950        8.5559600322  W2        5821            0.0000000000
     14712      4904  TIP3      H2             12.5638694676       16.0306351950        8.9555800322  W2        5821            0.0000000000
     14713      4905  TIP3      OH2             5.0400194676        0.6612551950       14.4159100322  W2        5824            0.0000000000
     14714      4905  TIP3      H1              4.1783894676        0.5740751950       14.0082000322  W2        5824            0.0000000000
     14715      4905  TIP3      H2              5.0175894676        1.5172651950       14.8436700322  W2        5824            0.0000000000
     14716      4906  TIP3      OH2            13.7917794676        8.9998151950        4.4053600322  W2        5827            0.0000000000
     14717      4906  TIP3      H1             13.8338594676        8.7772051950        3.4753600322  W2        5827            0.0000000000
     14718      4906  TIP3      H2             14.6409894676        9.3985251950        4.5953500322  W2        5827            0.0000000000
     14719      4907  TIP3      OH2             9.3645294676        2.8756351950        5.0756900322  W2        5828            0.0000000000
     14720      4907  TIP3      H1              9.1110094676        2.8947951950        5.9985000322  W2        5828            0.0000000000
     14721      4907  TIP3      H2              9.1077394676        2.0041751950        4.7743100322  W2        5828            0.0000000000
     14722      4908  TIP3      OH2             5.1279394676        5.8477151950       10.4229300322  W2        5830            0.0000000000
     14723      4908  TIP3      H1              4.2352294676        5.5073251950       10.3643100322  W2        5830            0.0000000000
     14724      4908  TIP3      H2              5.5785994676        5.4708051950        9.6672500322  W2        5830            0.0000000000
     14725      4909  TIP3      OH2            10.6634894676        6.2637451950        9.2400100322  W2        5831            0.0000000000
     14726      4909  TIP3      H1             10.2545194676        7.0786051950        8.9484900322  W2        5831            0.0000000000
     14727      4909  TIP3      H2             11.3841094676        6.1237551950        8.6257200322  W2        5831            0.0000000000
     14728      4910  TIP3      OH2            11.6682594676        5.7097851950       12.0539800322  W2        5833            0.0000000000
     14729      4910  TIP3      H1             11.4727094676        6.3154651950       11.3390400322  W2        5833            0.0000000000
     14730      4910  TIP3      H2             11.8495194676        4.8763051950       11.6196100322  W2        5833            0.0000000000
     14731      4911  TIP3      OH2             6.2468194676        3.3212851950        4.1767300322  W2        5835            0.0000000000
     14732      4911  TIP3      H1              5.8158894676        2.8762951950        4.9064700322  W2        5835            0.0000000000
     14733      4911  TIP3      H2              5.5286894676        3.6929151950        3.6644800322  W2        5835            0.0000000000
     14734      4912  TIP3      OH2            -0.5108405324        3.0632351950       11.2286000322  W2        5836            0.0000000000
     14735      4912  TIP3      H1              0.1199294676        3.0344451950       11.9479900322  W2        5836            0.0000000000
     14736      4912  TIP3      H2             -0.0614105324        2.6381051950       10.4981900322  W2        5836            0.0000000000
     14737      4913  TIP3      OH2             0.7633694676        3.8094351950        6.6526400322  W2        5837            0.0000000000
     14738      4913  TIP3      H1              1.2375394676        4.4004251950        6.0677300322  W2        5837            0.0000000000
     14739      4913  TIP3      H2              0.0460094676        4.3397251950        6.9996500322  W2        5837            0.0000000000
     14740      4914  TIP3      OH2             7.7094694676        3.2754651950       11.5093400322  W2        5839            0.0000000000
     14741      4914  TIP3      H1              6.7985794676        3.3321451950       11.7979400322  W2        5839            0.0000000000
     14742      4914  TIP3      H2              8.2147594676        3.2150151950       12.3200600322  W2        5839            0.0000000000
     14743      4915  TIP3      OH2             2.5378094676        4.9040951950       10.3361000322  W2        5840            0.0000000000
     14744      4915  TIP3      H1              1.6486094676        5.0036451950        9.9960600322  W2        5840            0.0000000000
     14745      4915  TIP3      H2              2.8342994676        4.0623951950        9.9898900322  W2        5840            0.0000000000
     14746      4916  TIP3      OH2             6.1909894676        4.9043551950        7.9925600322  W2        5841            0.0000000000
     14747      4916  TIP3      H1              7.1225394676        5.0333551950        8.1708700322  W2        5841            0.0000000000
     14748      4916  TIP3      H2              5.9760194676        5.5737851950        7.3430300322  W2        5841            0.0000000000
     14749      4917  TIP3      OH2            12.1146594676        2.5100951950       14.7735200322  W2        5842            0.0000000000
     14750      4917  TIP3      H1             11.4378194676        2.6414051950       15.4374900322  W2        5842            0.0000000000
     14751      4917  TIP3      H2             11.6291494676        2.3550451950       13.9632900322  W2        5842            0.0000000000
     14752      4918  TIP3      OH2             4.8650094676        6.0985751950        5.5591700322  W2        5843            0.0000000000
     14753      4918  TIP3      H1              4.3225194676        5.7189551950        4.8679300322  W2        5843            0.0000000000
     14754      4918  TIP3      H2              5.6984994676        6.2930451950        5.1305800322  W2        5843            0.0000000000
     14755      4919  TIP3      OH2             9.0294394676        6.0627651950       13.3963000322  W2        5846            0.0000000000
     14756      4919  TIP3      H1              9.5937794676        5.5164251950       12.8492600322  W2        5846            0.0000000000
     14757      4919  TIP3      H2              8.8817794676        5.5409551950       14.1850600322  W2        5846            0.0000000000
     14758      4920  TIP3      OH2             4.0314094676        2.1993751950        9.8147800322  W2        5847            0.0000000000
     14759      4920  TIP3      H1              3.7143594676        1.2969051950        9.7793200322  W2        5847            0.0000000000
     14760      4920  TIP3      H2              4.8128194676        2.2011151950        9.2619400322  W2        5847            0.0000000000
     14761      4921  TIP3      OH2             8.2002894676       10.6641451950        7.4949800322  W2        5849            0.0000000000
     14762      4921  TIP3      H1              7.4553894676       10.1566751950        7.1727700322  W2        5849            0.0000000000
     14763      4921  TIP3      H2              8.0660094676       10.7129451950        8.4414600322  W2        5849            0.0000000000
     14764      4922  TIP3      OH2            12.0979694676        3.4781351950        5.6942400322  W2        5851            0.0000000000
     14765      4922  TIP3      H1             11.1593894676        3.5896951950        5.5431200322  W2        5851            0.0000000000
     14766      4922  TIP3      H2             12.3951794676        4.3348251950        6.0008100322  W2        5851            0.0000000000
     14767      4923  TIP3      OH2            12.8163194676        5.3454051950        7.3549800322  W2        5853            0.0000000000
     14768      4923  TIP3      H1             13.7082194676        5.2079051950        7.6741000322  W2        5853            0.0000000000
     14769      4923  TIP3      H2             12.8726794676        6.1360151950        6.8183300322  W2        5853            0.0000000000
     14770      4924  TIP3      OH2             3.3251194676        9.9591451950       13.2647700322  W2        5854            0.0000000000
     14771      4924  TIP3      H1              4.0698394676        9.9567151950       12.6634200322  W2        5854            0.0000000000
     14772      4924  TIP3      H2              3.4027794676        9.1355251950       13.7462800322  W2        5854            0.0000000000
     14773      4925  TIP3      OH2            10.3256994676       12.1225751950        6.5204400322  W2        5855            0.0000000000
     14774      4925  TIP3      H1             10.0305394676       12.9493651950        6.9019200322  W2        5855            0.0000000000
     14775      4925  TIP3      H2              9.6226994676       11.5032651950        6.7165800322  W2        5855            0.0000000000
     14776      4926  TIP3      OH2            17.7011894676        5.5548151950        7.0496500322  W2        5859            0.0000000000
     14777      4926  TIP3      H1             17.1468194676        5.1586151950        6.3774000322  W2        5859            0.0000000000
     14778      4926  TIP3      H2             17.8015494676        6.4653351950        6.7719800322  W2        5859            0.0000000000
     14779      4927  TIP3      OH2            15.9963594676       14.3408551950        7.5148600322  W2        5861            0.0000000000
     14780      4927  TIP3      H1             15.6234694676       13.5152351950        7.8239200322  W2        5861            0.0000000000
     14781      4927  TIP3      H2             16.2737094676       14.1577951950        6.6172000322  W2        5861            0.0000000000
     14782      4928  TIP3      OH2            13.1567494676        9.1488051950       14.5360500322  W2        5862            0.0000000000
     14783      4928  TIP3      H1             12.2284394676        8.9169951950       14.5089800322  W2        5862            0.0000000000
     14784      4928  TIP3      H2             13.6078594676        8.3717851950       14.2059300322  W2        5862            0.0000000000
     14785      4929  TIP3      OH2             5.7000594676       13.4769651950       10.6689200322  W2        5863            0.0000000000
     14786      4929  TIP3      H1              6.2272794676       14.2504051950       10.4688000322  W2        5863            0.0000000000
     14787      4929  TIP3      H2              4.8199094676       13.7018851950       10.3673200322  W2        5863            0.0000000000
     14788      4930  TIP3      OH2             1.4548294676        8.3393751950        5.2561600322  W2        5864            0.0000000000
     14789      4930  TIP3      H1              2.0708194676        8.9660951950        5.6356400322  W2        5864            0.0000000000
     14790      4930  TIP3      H2              0.5930894676        8.6553551950        5.5278100322  W2        5864            0.0000000000
     14791      4931  TIP3      OH2             7.1272894676       11.1399551950       10.2453500322  W2        5865            0.0000000000
     14792      4931  TIP3      H1              6.8862894676       12.0653951950       10.2868800322  W2        5865            0.0000000000
     14793      4931  TIP3      H2              6.3866494676       10.6810851950       10.6417400322  W2        5865            0.0000000000
     14794      4932  TIP3      OH2             5.8103694676       16.1617151950        9.7905700322  W2        5867            0.0000000000
     14795      4932  TIP3      H1              4.8604194676       16.2674551950        9.8419000322  W2        5867            0.0000000000
     14796      4932  TIP3      H2              6.1621794676       16.9824551950       10.1353200322  W2        5867            0.0000000000
     14797      4933  TIP3      OH2            13.3889194676       12.3174351950        5.3349200322  W2        5869            0.0000000000
     14798      4933  TIP3      H1             13.7422294676       11.9374151950        6.1392700322  W2        5869            0.0000000000
     14799      4933  TIP3      H2             12.4402694676       12.2239151950        5.4218500322  W2        5869            0.0000000000
     14800      4934  TIP3      OH2            17.8923594676       16.7966851950        5.5359400322  W2        5871            0.0000000000
     14801      4934  TIP3      H1             18.6361494676       17.3827351950        5.3961000322  W2        5871            0.0000000000
     14802      4934  TIP3      H2             17.1981694676       17.3652651950        5.8691800322  W2        5871            0.0000000000
     14803      4935  TIP3      OH2            14.2548494676       10.9896351950        7.5617100322  W2        5873            0.0000000000
     14804      4935  TIP3      H1             13.9776094676       10.2615651950        8.1178200322  W2        5873            0.0000000000
     14805      4935  TIP3      H2             15.1821494676       11.1088351950        7.7669700322  W2        5873            0.0000000000
     14806      4936  TIP3      OH2             7.4796994676       13.4290451950        3.7819200322  W2        5875            0.0000000000
     14807      4936  TIP3      H1              7.7186794676       12.6808551950        3.2348100322  W2        5875            0.0000000000
     14808      4936  TIP3      H2              7.2108294676       13.0412151950        4.6147000322  W2        5875            0.0000000000
     14809      4937  TIP3      OH2             6.4167594676       12.9994251950        6.2381800322  W2        5876            0.0000000000
     14810      4937  TIP3      H1              6.5635594676       12.4794051950        7.0282700322  W2        5876            0.0000000000
     14811      4937  TIP3      H2              6.4139294676       13.9061851950        6.5447700322  W2        5876            0.0000000000
     14812      4938  TIP3      OH2             2.8698694676       10.2517551950        6.7487200322  W2        5877            0.0000000000
     14813      4938  TIP3      H1              2.1837994676       10.6040051950        7.3156900322  W2        5877            0.0000000000
     14814      4938  TIP3      H2              3.3926594676       11.0147151950        6.5021500322  W2        5877            0.0000000000
     14815      4939  TIP3      OH2            11.4858694676        2.5663051950        8.1248500322  W2        5879            0.0000000000
     14816      4939  TIP3      H1             11.7056994676        3.0378451950        7.3213900322  W2        5879            0.0000000000
     14817      4939  TIP3      H2             12.0442694676        2.9605651950        8.7949100322  W2        5879            0.0000000000
     14818      4940  TIP3      OH2             9.1544794676       14.6967851950        6.9876000322  W2        5880            0.0000000000
     14819      4940  TIP3      H1              8.3380894676       15.1937551950        7.0400300322  W2        5880            0.0000000000
     14820      4940  TIP3      H2              9.6841094676       15.1721351950        6.3474800322  W2        5880            0.0000000000
     14821      4941  TIP3      OH2             8.6858594676        4.2941851950        8.9596900322  W2        5881            0.0000000000
     14822      4941  TIP3      H1              9.4981194676        4.7985051950        9.0058600322  W2        5881            0.0000000000
     14823      4941  TIP3      H2              8.4411594676        4.1491551950        9.8736500322  W2        5881            0.0000000000
     14824      4942  TIP3      OH2             9.5695294676        1.3754851950        9.8978000322  W2        5883            0.0000000000
     14825      4942  TIP3      H1              9.2228794676        1.9925451950       10.5422300322  W2        5883            0.0000000000
     14826      4942  TIP3      H2             10.2282194676        1.8760551950        9.4163500322  W2        5883            0.0000000000
     14827      4943  TIP3      OH2             6.4927894676       15.7405051950        6.9692900322  W2        5884            0.0000000000
     14828      4943  TIP3      H1              6.6536594676       16.5402551950        6.4685500322  W2        5884            0.0000000000
     14829      4943  TIP3      H2              6.2955694676       16.0471051950        7.8543500322  W2        5884            0.0000000000
     14830      4944  TIP3      OH2             5.2272294676        2.4384251950        6.5850500322  W2        5885            0.0000000000
     14831      4944  TIP3      H1              5.1437094676        3.3267351950        6.9316900322  W2        5885            0.0000000000
     14832      4944  TIP3      H2              6.1172594676        2.1730951950        6.8167300322  W2        5885            0.0000000000
     14833      4945  TIP3      OH2            14.0281794676        6.9375851950       13.0750500322  W2        5887            0.0000000000
     14834      4945  TIP3      H1             13.2306194676        6.5226051950       12.7465500322  W2        5887            0.0000000000
     14835      4945  TIP3      H2             14.4732894676        6.2469551950       13.5661000322  W2        5887            0.0000000000
     14836      4946  TIP3      OH2             3.4857594676       12.8656451950        5.6455000322  W2        5888            0.0000000000
     14837      4946  TIP3      H1              4.0779094676       13.5651251950        5.9217400322  W2        5888            0.0000000000
     14838      4946  TIP3      H2              3.9450594676       12.4325951950        4.9259600322  W2        5888            0.0000000000
     14839      4947  TIP3      OH2             1.8016794676        5.5299451950        4.7614400322  W2        5889            0.0000000000
     14840      4947  TIP3      H1              1.7569394676        6.4692551950        4.9401400322  W2        5889            0.0000000000
     14841      4947  TIP3      H2              0.9139994676        5.2944351950        4.4916500322  W2        5889            0.0000000000
     14842      4948  TIP3      OH2            15.1146394676       16.1938351950       14.6974000322  W2        5890            0.0000000000
     14843      4948  TIP3      H1             14.9590694676       16.8722751950       14.0403300322  W2        5890            0.0000000000
     14844      4948  TIP3      H2             16.0472794676       16.2657651950       14.9004600322  W2        5890            0.0000000000
     14845      4949  TIP3      OH2             2.6098794676        0.3116051950       13.4345400322  W2        5891            0.0000000000
     14846      4949  TIP3      H1              2.3808594676        0.3708551950       12.5070400322  W2        5891            0.0000000000
     14847      4949  TIP3      H2              2.1672194676       -0.4798448050       13.7409500322  W2        5891            0.0000000000
     14848      4950  TIP3      OH2             1.5402094676       14.2523151950        9.5951200322  W2        5892            0.0000000000
     14849      4950  TIP3      H1              0.7080694676       14.7245851950        9.6222600322  W2        5892            0.0000000000
     14850      4950  TIP3      H2              2.0860394676       14.7620751950        8.9964300322  W2        5892            0.0000000000
     14851      4951  TIP3      OH2             9.5178794676       15.2921851950        3.9205200322  W2        5895            0.0000000000
     14852      4951  TIP3      H1              8.8739794676       14.6610451950        4.2418900322  W2        5895            0.0000000000
     14853      4951  TIP3      H2             10.2797094676       14.7609851950        3.6888700322  W2        5895            0.0000000000
     14854      4952  TIP3      OH2            14.1221694676       15.1091751950        4.1543200322  W2        5897            0.0000000000
     14855      4952  TIP3      H1             14.4052094676       14.3146951950        4.6070100322  W2        5897            0.0000000000
     14856      4952  TIP3      H2             14.8619594676       15.3422751950        3.5934300322  W2        5897            0.0000000000
     14857      4953  TIP3      OH2             5.0768994676       11.0186651950        4.0118100322  W2        5899            0.0000000000
     14858      4953  TIP3      H1              5.1413094676       10.2246251950        4.5424500322  W2        5899            0.0000000000
     14859      4953  TIP3      H2              5.7298194676       10.8999451950        3.3220100322  W2        5899            0.0000000000
     14860      4954  TIP3      OH2            10.4292394676       12.0658351950        3.7476100322  W2        5901            0.0000000000
     14861      4954  TIP3      H1             10.1606494676       12.2460451950        4.6485000322  W2        5901            0.0000000000
     14862      4954  TIP3      H2             10.2227994676       11.1404551950        3.6161900322  W2        5901            0.0000000000
     14863      4955  TIP3      OH2             6.2262794676        8.9912851950        6.3176100322  W2        5904            0.0000000000
     14864      4955  TIP3      H1              5.7664794676        8.5071151950        7.0034600322  W2        5904            0.0000000000
     14865      4955  TIP3      H2              6.4811494676        8.3228251950        5.6816600322  W2        5904            0.0000000000
     14866      4956  TIP3      OH2             7.2973194676        7.2344651950        4.5799300322  W2        5906            0.0000000000
     14867      4956  TIP3      H1              7.1168194676        7.0795851950        3.6527600322  W2        5906            0.0000000000
     14868      4956  TIP3      H2              8.2473694676        7.3423351950        4.6247200322  W2        5906            0.0000000000
     14869      4957  TIP3      OH2            16.6871494676        9.5888851950        4.0257400322  W2        5908            0.0000000000
     14870      4957  TIP3      H1             16.4136294676        9.1644351950        3.2125700322  W2        5908            0.0000000000
     14871      4957  TIP3      H2             16.7265594676       10.5203351950        3.8087800322  W2        5908            0.0000000000
     14872      4958  TIP3      OH2             7.1944894676       17.9248351950        5.5812900322  W2        5922            0.0000000000
     14873      4958  TIP3      H1              8.1275594676       18.0827051950        5.7251300322  W2        5922            0.0000000000
     14874      4958  TIP3      H2              6.9303694676       18.6001351950        4.9564400322  W2        5922            0.0000000000
     14875      4959  TIP3      OH2             0.7629794676       12.5612151950        5.0641000322  W2        5923            0.0000000000
     14876      4959  TIP3      H1              1.6768994676       12.6401051950        5.3374900322  W2        5923            0.0000000000
     14877      4959  TIP3      H2              0.7702894676       11.8741751950        4.3976600322  W2        5923            0.0000000000
     14878      4960  TIP3      OH2            -0.5879605324       17.9540651950       10.1414900322  W2        5924            0.0000000000
     14879      4960  TIP3      H1             -1.2352505324       17.4922351950        9.6086100322  W2        5924            0.0000000000
     14880      4960  TIP3      H2             -0.2335005324       17.2823951950       10.7241100322  W2        5924            0.0000000000
     14881      4961  TIP3      OH2             0.2819594676       16.0347651950       11.9461100322  W2        5925            0.0000000000
     14882      4961  TIP3      H1             -0.0523605324       15.1544951950       12.1181300322  W2        5925            0.0000000000
     14883      4961  TIP3      H2              0.5041994676       16.3802651950       12.8106700322  W2        5925            0.0000000000
     14884      4962  TIP3      OH2            17.1454294676       10.4576951950        8.0007800322  W2        5929            0.0000000000
     14885      4962  TIP3      H1             17.9955694676       10.8787851950        8.1279400322  W2        5929            0.0000000000
     14886      4962  TIP3      H2             17.1509394676        9.7177051950        8.6079200322  W2        5929            0.0000000000
     14887      4963  TIP3      OH2            17.5399894676        8.5114351950        9.8243500322  W2        5930            0.0000000000
     14888      4963  TIP3      H1             16.8134494676        8.0316951950       10.2221100322  W2        5930            0.0000000000
     14889      4963  TIP3      H2             18.1213194676        8.7169051950       10.5565100322  W2        5930            0.0000000000
     14890      4964  TIP3      OH2            17.2991094676       11.2961851950       14.7721100322  W2        5931            0.0000000000
     14891      4964  TIP3      H1             18.1325294676       10.9181851950       14.4914700322  W2        5931            0.0000000000
     14892      4964  TIP3      H2             17.4111394676       12.2393051950       14.6530200322  W2        5931            0.0000000000
     14893      4965  TIP3      OH2            17.8082994676        8.4122851950        6.2154800322  W2        5933            0.0000000000
     14894      4965  TIP3      H1             17.2864094676        8.7686951950        5.4965700322  W2        5933            0.0000000000
     14895      4965  TIP3      H2             17.7752194676        9.0870651950        6.8935700322  W2        5933            0.0000000000
     14896      4966  TIP3      OH2            16.1571994676        5.6518451950        4.7661900322  W2        5934            0.0000000000
     14897      4966  TIP3      H1             16.2536394676        6.3185451950        4.0861600322  W2        5934            0.0000000000
     14898      4966  TIP3      H2             16.0171594676        4.8364751950        4.2847400322  W2        5934            0.0000000000
     14899      4967  TIP3      OH2            15.3266694676        7.0320851950       10.3872200322  W2        5935            0.0000000000
     14900      4967  TIP3      H1             15.1765494676        6.0869451950       10.3670000322  W2        5935            0.0000000000
     14901      4967  TIP3      H2             14.9731194676        7.3132251950       11.2311300322  W2        5935            0.0000000000
     14902      4968  TIP3      OH2             0.3619094676        9.1103051950       14.3976000322  W2        5936            0.0000000000
     14903      4968  TIP3      H1              0.5461994676        9.0284751950       13.4618900322  W2        5936            0.0000000000
     14904      4968  TIP3      H2              1.2111994676        8.9860051950       14.8212400322  W2        5936            0.0000000000
     14905      4969  TIP3      OH2            15.4045794676        3.0598251950        3.8837400322  W2        5939            0.0000000000
     14906      4969  TIP3      H1             16.0151594676        2.6885051950        4.5205600322  W2        5939            0.0000000000
     14907      4969  TIP3      H2             14.5677294676        2.6385151950        4.0797400322  W2        5939            0.0000000000
     14908      4970  TIP3      OH2            15.0371494676        4.6146651950        8.8497300322  W2        5940            0.0000000000
     14909      4970  TIP3      H1             15.3168594676        3.7077051950        8.9739000322  W2        5940            0.0000000000
     14910      4970  TIP3      H2             15.7963194676        5.0488151950        8.4606500322  W2        5940            0.0000000000
     14911      4971  TIP3      OH2            15.6489794676        5.1964051950       14.2856200322  W2        5941            0.0000000000
     14912      4971  TIP3      H1             16.5817794676        5.4083951950       14.2512200322  W2        5941            0.0000000000
     14913      4971  TIP3      H2             15.4137294676        5.2976151950       15.2079200322  W2        5941            0.0000000000
     14914      4972  TIP3      OH2            15.6506294676        1.8775951950        8.8979300322  W2        5945            0.0000000000
     14915      4972  TIP3      H1             15.8331294676        1.4287451950        9.7234300322  W2        5945            0.0000000000
     14916      4972  TIP3      H2             15.0509194676        1.2930351950        8.4343900322  W2        5945            0.0000000000
     14917      4973  TIP3      OH2             1.1806394676        2.6929651950       13.4297700322  W2        5946            0.0000000000
     14918      4973  TIP3      H1              1.6257994676        1.9012151950       13.7317400322  W2        5946            0.0000000000
     14919      4973  TIP3      H2              1.6469394676        3.4094851950       13.8603300322  W2        5946            0.0000000000
     14920      4974  TIP3      OH2            -0.5153305324        5.6922651950       14.4987900322  W2        5947            0.0000000000
     14921      4974  TIP3      H1             -0.0233505324        5.4713151950       13.7079900322  W2        5947            0.0000000000
     14922      4974  TIP3      H2             -0.1532405324        6.5326051950       14.7797400322  W2        5947            0.0000000000
     14923      4975  TIP3      OH2            17.5172494676        1.9454051950        5.4259600322  W2        5949            0.0000000000
     14924      4975  TIP3      H1             17.9295094676        1.2239751950        4.9507600322  W2        5949            0.0000000000
     14925      4975  TIP3      H2             18.1988994676        2.6148651950        5.4843900322  W2        5949            0.0000000000
     14926      4976  TIP3      OH2            -0.2016805324        1.9501751950        8.5530300322  W2        5950            0.0000000000
     14927      4976  TIP3      H1             -1.1268405324        2.1588351950        8.4235800322  W2        5950            0.0000000000
     14928      4976  TIP3      H2              0.2523094676        2.4342551950        7.8632600322  W2        5950            0.0000000000
     14929      4977  TIP3      OH2            14.5690394676       16.9343451950       10.4987700322  W2        5951            0.0000000000
     14930      4977  TIP3      H1             15.2213294676       16.5865551950        9.8906800322  W2        5951            0.0000000000
     14931      4977  TIP3      H2             15.0794194676       17.4226651950       11.1447400322  W2        5951            0.0000000000
     14932      4978  TIP3      OH2             1.7245594676       16.7172451950       14.2579700322  W2        5963            0.0000000000
     14933      4978  TIP3      H1              1.7061594676       16.2917551950       15.1152000322  W2        5963            0.0000000000
     14934      4978  TIP3      H2              2.5293494676       16.3987451950       13.8491900322  W2        5963            0.0000000000
     14935      4979  TIP3      OH2             3.8658694676       15.4271151950       12.9129600322  W2        5964            0.0000000000
     14936      4979  TIP3      H1              3.6469394676       14.5108551950       13.0825600322  W2        5964            0.0000000000
     14937      4979  TIP3      H2              4.6900894676       15.5671551950       13.3791000322  W2        5964            0.0000000000
     14938      4980  TIP3      OH2             6.4031194676       15.8970451950       13.7617600322  W2        5965            0.0000000000
     14939      4980  TIP3      H1              6.6156894676       15.0089451950       13.4748500322  W2        5965            0.0000000000
     14940      4980  TIP3      H2              6.4676294676       15.8628151950       14.7161600322  W2        5965            0.0000000000
     14941      4981  TIP3      OH2             9.9114894676        1.5611051950       12.9060900322  W2        5966            0.0000000000
     14942      4981  TIP3      H1              9.2371694676        0.9316651950       13.1616700322  W2        5966            0.0000000000
     14943      4981  TIP3      H2             10.4754094676        1.0769951950       12.3028800322  W2        5966            0.0000000000
     14944      4982  TIP3      OH2            15.0542094676       -0.3314948050       13.0188000322  W2        5967            0.0000000000
     14945      4982  TIP3      H1             15.6579694676        0.2160451950       12.5169000322  W2        5967            0.0000000000
     14946      4982  TIP3      H2             14.1844094676       -0.0124548050       12.7782100322  W2        5967            0.0000000000
     14947      4983  TIP3      OH2            16.7812494676        0.8073751950       11.3518900322  W2        5968            0.0000000000
     14948      4983  TIP3      H1             17.3929994676        0.2929451950       10.8252500322  W2        5968            0.0000000000
     14949      4983  TIP3      H2             17.1635894676        1.6845851950       11.3753300322  W2        5968            0.0000000000
     14950      4984  TIP3      OH2             2.2382394676        0.1951351950       10.7280800322  W2        5969            0.0000000000
     14951      4984  TIP3      H1              1.4612194676       -0.0393748050       10.2206700322  W2        5969            0.0000000000
     14952      4984  TIP3      H2              2.7685994676       -0.6016548050       10.7368800322  W2        5969            0.0000000000
     14953      4985  TIP3      OH2             1.0745794676       -0.0070548050        6.5316900322  W2        5970            0.0000000000
     14954      4985  TIP3      H1              1.5136494676        0.6039951950        5.9400400322  W2        5970            0.0000000000
     14955      4985  TIP3      H2              0.4408194676        0.5313551950        7.0056900322  W2        5970            0.0000000000
     14956      4986  TIP3      OH2             6.8174994676        0.1218451950       10.5413900322  W2        5971            0.0000000000
     14957      4986  TIP3      H1              7.6918394676        0.5102751950       10.5118200322  W2        5971            0.0000000000
     14958      4986  TIP3      H2              6.6815794676       -0.0933748050       11.4641100322  W2        5971            0.0000000000
     14959      4987  TIP3      OH2            12.3743394676        0.1518251950       12.1905600322  W2        5972            0.0000000000
     14960      4987  TIP3      H1             12.4504994676        0.2469851950       11.2411600322  W2        5972            0.0000000000
     14961      4987  TIP3      H2             12.0992594676       -0.7558848050       12.3194700322  W2        5972            0.0000000000
     14962      4988  TIP3      OH2            13.7275994676        0.1776051950        7.8830600322  W2        5973            0.0000000000
     14963      4988  TIP3      H1             13.0247094676        0.7925251950        7.6732000322  W2        5973            0.0000000000
     14964      4988  TIP3      H2             13.2827394676       -0.6597248050        8.0141500322  W2        5973            0.0000000000
     14965      4989  TIP3      OH2             0.9755294676       15.9411651950        7.4292000322  W2        5974            0.0000000000
     14966      4989  TIP3      H1              0.2905194676       15.9030551950        6.7617100322  W2        5974            0.0000000000
     14967      4989  TIP3      H2              0.9792494676       16.8539251950        7.7174100322  W2        5974            0.0000000000
     14968      4990  TIP3      OH2             2.9354894676        1.9090951950        4.9741000322  W2        5975            0.0000000000
     14969      4990  TIP3      H1              3.4268294676        1.2793351950        4.4466500322  W2        5975            0.0000000000
     14970      4990  TIP3      H2              3.5591194676        2.2050351950        5.6372200322  W2        5975            0.0000000000
     14971      4991  TIP3      OH2             7.9614994676        2.2022451950        7.4311500322  W2        5976            0.0000000000
     14972      4991  TIP3      H1              8.1396294676        1.5555651950        8.1140100322  W2        5976            0.0000000000
     14973      4991  TIP3      H2              7.9081194676        3.0360151950        7.8982600322  W2        5976            0.0000000000
     14974      4992  TIP3      OH2             9.8398794676       17.1506551950        5.8268200322  W2        5977            0.0000000000
     14975      4992  TIP3      H1             10.7058994676       17.5173951950        5.6486400322  W2        5977            0.0000000000
     14976      4992  TIP3      H2              9.5931594676       16.7114551950        5.0129000322  W2        5977            0.0000000000
     14977      4993  TIP3      OH2            16.5488394676       16.7136851950        8.5059300322  W2        5978            0.0000000000
     14978      4993  TIP3      H1             16.3545494676       15.9658951950        7.9408900322  W2        5978            0.0000000000
     14979      4993  TIP3      H2             16.5098494676       17.4716951950        7.9227200322  W2        5978            0.0000000000
     14980      4994  TIP3      OH2             2.7936494676       16.8612451950        4.4544100322  W2        5981            0.0000000000
     14981      4994  TIP3      H1              2.5261094676       17.1475351950        5.3277200322  W2        5981            0.0000000000
     14982      4994  TIP3      H2              3.5649094676       16.3151651950        4.6066600322  W2        5981            0.0000000000
     14983      4995  TIP3      OH2            30.1724994676        9.3513651950       10.6868300322  W2        5984            0.0000000000
     14984      4995  TIP3      H1             30.2616094676       10.2951851950       10.5545400322  W2        5984            0.0000000000
     14985      4995  TIP3      H2             29.5342594676        9.0760051950       10.0287700322  W2        5984            0.0000000000
     14986      4996  TIP3      OH2            29.1056294676        8.6064351950       14.1056500322  W2        5985            0.0000000000
     14987      4996  TIP3      H1             29.0673794676        7.9600651950       14.8106100322  W2        5985            0.0000000000
     14988      4996  TIP3      H2             28.7832794676        8.1398751950       13.3345200322  W2        5985            0.0000000000
     14989      4997  TIP3      OH2            32.8116494676       11.5454751950       12.4071600322  W2        5987            0.0000000000
     14990      4997  TIP3      H1             32.3709194676       10.8250751950       12.8577200322  W2        5987            0.0000000000
     14991      4997  TIP3      H2             32.7986194676       12.2661951950       13.0369300322  W2        5987            0.0000000000
     14992      4998  TIP3      OH2            22.3974394676       12.6705351950       14.2335500322  W2        5988            0.0000000000
     14993      4998  TIP3      H1             22.0279594676       11.8685851950       13.8639800322  W2        5988            0.0000000000
     14994      4998  TIP3      H2             23.3385494676       12.5020251950       14.2798900322  W2        5988            0.0000000000
     14995      4999  TIP3      OH2            19.0074894676        6.3307951950        9.6264300322  W2        5989            0.0000000000
     14996      4999  TIP3      H1             18.5598294676        7.1766651950        9.6080800322  W2        5989            0.0000000000
     14997      4999  TIP3      H2             18.4466094676        5.7512151950        9.1109400322  W2        5989            0.0000000000
     14998      5000  TIP3      OH2            19.7180994676        8.4927551950       11.7522300322  W2        5990            0.0000000000
     14999      5000  TIP3      H1             19.9314494676        7.7229151950       12.2795300322  W2        5990            0.0000000000
     15000      5000  TIP3      H2             20.4558594676        8.5824251950       11.1489900322  W2        5990            0.0000000000
     15001      5001  TIP3      OH2            29.9231994676       16.6496451950       12.6192000322  W2        5991            0.0000000000
     15002      5001  TIP3      H1             30.5428394676       15.9731151950       12.3461200322  W2        5991            0.0000000000
     15003      5001  TIP3      H2             29.7149394676       16.4317251950       13.5276900322  W2        5991            0.0000000000
     15004      5002  TIP3      OH2            27.4950694676       11.0385751950       14.5117500322  W2        5992            0.0000000000
     15005      5002  TIP3      H1             27.7988594676       10.3527151950       13.9171600322  W2        5992            0.0000000000
     15006      5002  TIP3      H2             28.2164694676       11.1574451950       15.1295500322  W2        5992            0.0000000000
     15007      5003  TIP3      OH2            30.6357694676        5.4328151950       14.8392300322  W2        5994            0.0000000000
     15008      5003  TIP3      H1             30.7783594676        4.4865151950       14.8593900322  W2        5994            0.0000000000
     15009      5003  TIP3      H2             30.5296694676        5.6397951950       13.9107200322  W2        5994            0.0000000000
     15010      5004  TIP3      OH2            23.7905994676        3.5344551950       12.1117100322  W2        5995            0.0000000000
     15011      5004  TIP3      H1             23.8337094676        4.3943051950       11.6933400322  W2        5995            0.0000000000
     15012      5004  TIP3      H2             23.3330094676        2.9819251950       11.4780300322  W2        5995            0.0000000000
     15013      5005  TIP3      OH2            31.5128694676        3.6650151950       10.5125400322  W2        5996            0.0000000000
     15014      5005  TIP3      H1             32.1592994676        3.3363351950       11.1373000322  W2        5996            0.0000000000
     15015      5005  TIP3      H2             32.0228094676        4.1829151950        9.8896800322  W2        5996            0.0000000000
     15016      5006  TIP3      OH2            20.4107494676        5.9310351950       12.8738500322  W2        5997            0.0000000000
     15017      5006  TIP3      H1             21.0644094676        5.3812051950       13.3058600322  W2        5997            0.0000000000
     15018      5006  TIP3      H2             20.4346794676        5.6569351950       11.9570500322  W2        5997            0.0000000000
     15019      5007  TIP3      OH2            25.5671994676        7.4811651950       12.0890000322  W2        5998            0.0000000000
     15020      5007  TIP3      H1             26.1832994676        6.9547051950       12.5984000322  W2        5998            0.0000000000
     15021      5007  TIP3      H2             24.9810794676        6.8410351950       11.6853600322  W2        5998            0.0000000000
     15022      5008  TIP3      OH2            29.9697694676       11.9524051950        9.7297000322  W2        6001            0.0000000000
     15023      5008  TIP3      H1             29.6742794676       11.6296351950        8.8783900322  W2        6001            0.0000000000
     15024      5008  TIP3      H2             29.6455494676       12.8520751950        9.7709600322  W2        6001            0.0000000000
     15025      5009  TIP3      OH2            33.2767094676        2.9559451950       12.4931300322  W2        6003            0.0000000000
     15026      5009  TIP3      H1             33.0615094676        2.1902851950       13.0257300322  W2        6003            0.0000000000
     15027      5009  TIP3      H2             33.9324494676        3.4284051950       13.0059800322  W2        6003            0.0000000000
     15028      5010  TIP3      OH2            22.1945194676        4.3444751950       14.1380100322  W2        6004            0.0000000000
     15029      5010  TIP3      H1             22.8081494676        4.9772351950       14.5112500322  W2        6004            0.0000000000
     15030      5010  TIP3      H2             22.7065894676        3.8719751950       13.4817000322  W2        6004            0.0000000000
     15031      5011  TIP3      OH2            19.6984494676       11.7629551950        8.0422400322  W2        6006            0.0000000000
     15032      5011  TIP3      H1             19.4265394676       11.9920551950        7.1535300322  W2        6006            0.0000000000
     15033      5011  TIP3      H2             19.7440194676       12.6008351950        8.5027700322  W2        6006            0.0000000000
     15034      5012  TIP3      OH2            33.3234194676       13.3845451950       14.7550900322  W2        6007            0.0000000000
     15035      5012  TIP3      H1             32.3817894676       13.4429351950       14.9167800322  W2        6007            0.0000000000
     15036      5012  TIP3      H2             33.6000294676       14.2905951950       14.6180600322  W2        6007            0.0000000000
     15037      5013  TIP3      OH2            26.6272594676       -0.2421948050       13.6382800322  W2        6009            0.0000000000
     15038      5013  TIP3      H1             26.5096794676       -1.1905948050       13.5841100322  W2        6009            0.0000000000
     15039      5013  TIP3      H2             25.7722694676        0.0904151950       13.9113900322  W2        6009            0.0000000000
     15040      5014  TIP3      OH2            31.5755394676       15.1658951950       11.3802500322  W2        6010            0.0000000000
     15041      5014  TIP3      H1             32.0007694676       14.4586851950       10.8952100322  W2        6010            0.0000000000
     15042      5014  TIP3      H2             31.8925394676       15.9671651950       10.9634700322  W2        6010            0.0000000000
     15043      5015  TIP3      OH2            32.7351894676       13.0667451950        9.8889100322  W2        6011            0.0000000000
     15044      5015  TIP3      H1             32.4776694676       12.3767551950        9.2775000322  W2        6011            0.0000000000
     15045      5015  TIP3      H2             32.8062694676       12.6238651950       10.7345000322  W2        6011            0.0000000000
     15046      5016  TIP3      OH2            28.8937494676        8.5953651950        8.1388600322  W2        6013            0.0000000000
     15047      5016  TIP3      H1             28.1822994676        9.1303351950        7.7869100322  W2        6013            0.0000000000
     15048      5016  TIP3      H2             29.5847094676        8.6505751950        7.4787500322  W2        6013            0.0000000000
     15049      5017  TIP3      OH2            28.9476694676        7.0527951950        5.1773600322  W2        6014            0.0000000000
     15050      5017  TIP3      H1             29.6486594676        7.0754851950        5.8287600322  W2        6014            0.0000000000
     15051      5017  TIP3      H2             29.2499594676        6.4247651950        4.5212900322  W2        6014            0.0000000000
     15052      5018  TIP3      OH2            32.2995194676        8.8046951950        9.0904500322  W2        6016            0.0000000000
     15053      5018  TIP3      H1             31.5676194676        9.0330651950        9.6635100322  W2        6016            0.0000000000
     15054      5018  TIP3      H2             32.7467394676        8.0909651950        9.5452000322  W2        6016            0.0000000000
     15055      5019  TIP3      OH2            23.9448894676        9.4353151950       10.9729500322  W2        6018            0.0000000000
     15056      5019  TIP3      H1             23.6144094676        9.0646551950       10.1546500322  W2        6018            0.0000000000
     15057      5019  TIP3      H2             24.5332994676        8.7647151950       11.3197800322  W2        6018            0.0000000000
     15058      5020  TIP3      OH2            25.3116394676       12.8633751950       13.6541700322  W2        6019            0.0000000000
     15059      5020  TIP3      H1             25.2167694676       12.2846851950       12.8976300322  W2        6019            0.0000000000
     15060      5020  TIP3      H2             26.0409994676       12.4919451950       14.1504500322  W2        6019            0.0000000000
     15061      5021  TIP3      OH2            24.3114394676        8.2038751950       14.6064500322  W2        6020            0.0000000000
     15062      5021  TIP3      H1             24.8766894676        8.3252951950       13.8435700322  W2        6020            0.0000000000
     15063      5021  TIP3      H2             24.6303294676        8.8413751950       15.2453000322  W2        6020            0.0000000000
     15064      5022  TIP3      OH2            31.1704694676        7.9669851950        6.7755700322  W2        6023            0.0000000000
     15065      5022  TIP3      H1             31.7500194676        8.1170151950        7.5224600322  W2        6023            0.0000000000
     15066      5022  TIP3      H2             31.5844694676        8.4377251950        6.0522100322  W2        6023            0.0000000000
     15067      5023  TIP3      OH2            28.8969594676       14.7038351950       10.2108800322  W2        6025            0.0000000000
     15068      5023  TIP3      H1             29.3707194676       14.9994651950       10.9883000322  W2        6025            0.0000000000
     15069      5023  TIP3      H2             28.3338894676       15.4419951950        9.9778400322  W2        6025            0.0000000000
     15070      5024  TIP3      OH2            34.8693094676       -0.2829748050        6.5885400322  W2        6027            0.0000000000
     15071      5024  TIP3      H1             33.9693794676       -0.1440748050        6.8836000322  W2        6027            0.0000000000
     15072      5024  TIP3      H2             35.1211494676        0.5484851950        6.1867100322  W2        6027            0.0000000000
     15073      5025  TIP3      OH2            22.9351594676        8.5047451950        8.5622300322  W2        6028            0.0000000000
     15074      5025  TIP3      H1             22.6432894676        9.2729151950        8.0713600322  W2        6028            0.0000000000
     15075      5025  TIP3      H2             22.2606794676        7.8453651950        8.3993700322  W2        6028            0.0000000000
     15076      5026  TIP3      OH2            36.0584494676       14.0832651950        4.9649300322  W2        6029            0.0000000000
     15077      5026  TIP3      H1             36.1317994676       15.0222851950        5.1354600322  W2        6029            0.0000000000
     15078      5026  TIP3      H2             36.9639594676       13.7781251950        4.9086600322  W2        6029            0.0000000000
     15079      5027  TIP3      OH2            18.7784394676       13.6480451950       14.2612300322  W2        6031            0.0000000000
     15080      5027  TIP3      H1             19.7244994676       13.5037451950       14.2421800322  W2        6031            0.0000000000
     15081      5027  TIP3      H2             18.6660694676       14.4323251950       14.7983500322  W2        6031            0.0000000000
     15082      5028  TIP3      OH2            28.3692694676       17.6603051950        8.6258000322  W2        6034            0.0000000000
     15083      5028  TIP3      H1             28.2938694676       17.5390251950        7.6793200322  W2        6034            0.0000000000
     15084      5028  TIP3      H2             28.4021394676       18.6095751950        8.7442600322  W2        6034            0.0000000000
     15085      5029  TIP3      OH2            22.0226494676       16.4490051950       10.4067000322  W2        6035            0.0000000000
     15086      5029  TIP3      H1             22.1746894676       16.1010451950       11.2853500322  W2        6035            0.0000000000
     15087      5029  TIP3      H2             21.1716894676       16.0927351950       10.1514200322  W2        6035            0.0000000000
     15088      5030  TIP3      OH2            31.4708694676       16.8143251950        5.6280400322  W2        6036            0.0000000000
     15089      5030  TIP3      H1             31.8457094676       16.0699351950        5.1573000322  W2        6036            0.0000000000
     15090      5030  TIP3      H2             31.4752394676       16.5443851950        6.5463700322  W2        6036            0.0000000000
     15091      5031  TIP3      OH2            31.1396794676       16.7400351950        8.3772600322  W2        6037            0.0000000000
     15092      5031  TIP3      H1             30.2046594676       16.8402251950        8.5559600322  W2        6037            0.0000000000
     15093      5031  TIP3      H2             31.4198694676       16.0306351950        8.9555800322  W2        6037            0.0000000000
     15094      5032  TIP3      OH2            23.8960194676        0.6612551950       14.4159100322  W2        6040            0.0000000000
     15095      5032  TIP3      H1             23.0343894676        0.5740751950       14.0082000322  W2        6040            0.0000000000
     15096      5032  TIP3      H2             23.8735894676        1.5172651950       14.8436700322  W2        6040            0.0000000000
     15097      5033  TIP3      OH2            32.6477794676        8.9998151950        4.4053600322  W2        6043            0.0000000000
     15098      5033  TIP3      H1             32.6898594676        8.7772051950        3.4753600322  W2        6043            0.0000000000
     15099      5033  TIP3      H2             33.4969894676        9.3985251950        4.5953500322  W2        6043            0.0000000000
     15100      5034  TIP3      OH2            28.2205294676        2.8756351950        5.0756900322  W2        6044            0.0000000000
     15101      5034  TIP3      H1             27.9670094676        2.8947951950        5.9985000322  W2        6044            0.0000000000
     15102      5034  TIP3      H2             27.9637394676        2.0041751950        4.7743100322  W2        6044            0.0000000000
     15103      5035  TIP3      OH2            23.9839394676        5.8477151950       10.4229300322  W2        6046            0.0000000000
     15104      5035  TIP3      H1             23.0912294676        5.5073251950       10.3643100322  W2        6046            0.0000000000
     15105      5035  TIP3      H2             24.4345994676        5.4708051950        9.6672500322  W2        6046            0.0000000000
     15106      5036  TIP3      OH2            29.5194894676        6.2637451950        9.2400100322  W2        6047            0.0000000000
     15107      5036  TIP3      H1             29.1105194676        7.0786051950        8.9484900322  W2        6047            0.0000000000
     15108      5036  TIP3      H2             30.2401094676        6.1237551950        8.6257200322  W2        6047            0.0000000000
     15109      5037  TIP3      OH2            30.5242594676        5.7097851950       12.0539800322  W2        6049            0.0000000000
     15110      5037  TIP3      H1             30.3287094676        6.3154651950       11.3390400322  W2        6049            0.0000000000
     15111      5037  TIP3      H2             30.7055194676        4.8763051950       11.6196100322  W2        6049            0.0000000000
     15112      5038  TIP3      OH2            25.1028194676        3.3212851950        4.1767300322  W2        6051            0.0000000000
     15113      5038  TIP3      H1             24.6718894676        2.8762951950        4.9064700322  W2        6051            0.0000000000
     15114      5038  TIP3      H2             24.3846894676        3.6929151950        3.6644800322  W2        6051            0.0000000000
     15115      5039  TIP3      OH2            18.3451594676        3.0632351950       11.2286000322  W2        6052            0.0000000000
     15116      5039  TIP3      H1             18.9759294676        3.0344451950       11.9479900322  W2        6052            0.0000000000
     15117      5039  TIP3      H2             18.7945894676        2.6381051950       10.4981900322  W2        6052            0.0000000000
     15118      5040  TIP3      OH2            19.6193694676        3.8094351950        6.6526400322  W2        6053            0.0000000000
     15119      5040  TIP3      H1             20.0935394676        4.4004251950        6.0677300322  W2        6053            0.0000000000
     15120      5040  TIP3      H2             18.9020094676        4.3397251950        6.9996500322  W2        6053            0.0000000000
     15121      5041  TIP3      OH2            26.5654694676        3.2754651950       11.5093400322  W2        6055            0.0000000000
     15122      5041  TIP3      H1             25.6545794676        3.3321451950       11.7979400322  W2        6055            0.0000000000
     15123      5041  TIP3      H2             27.0707594676        3.2150151950       12.3200600322  W2        6055            0.0000000000
     15124      5042  TIP3      OH2            21.3938094676        4.9040951950       10.3361000322  W2        6056            0.0000000000
     15125      5042  TIP3      H1             20.5046094676        5.0036451950        9.9960600322  W2        6056            0.0000000000
     15126      5042  TIP3      H2             21.6902994676        4.0623951950        9.9898900322  W2        6056            0.0000000000
     15127      5043  TIP3      OH2            25.0469894676        4.9043551950        7.9925600322  W2        6057            0.0000000000
     15128      5043  TIP3      H1             25.9785394676        5.0333551950        8.1708700322  W2        6057            0.0000000000
     15129      5043  TIP3      H2             24.8320194676        5.5737851950        7.3430300322  W2        6057            0.0000000000
     15130      5044  TIP3      OH2            30.9706594676        2.5100951950       14.7735200322  W2        6058            0.0000000000
     15131      5044  TIP3      H1             30.2938194676        2.6414051950       15.4374900322  W2        6058            0.0000000000
     15132      5044  TIP3      H2             30.4851494676        2.3550451950       13.9632900322  W2        6058            0.0000000000
     15133      5045  TIP3      OH2            23.7210094676        6.0985751950        5.5591700322  W2        6059            0.0000000000
     15134      5045  TIP3      H1             23.1785194676        5.7189551950        4.8679300322  W2        6059            0.0000000000
     15135      5045  TIP3      H2             24.5544994676        6.2930451950        5.1305800322  W2        6059            0.0000000000
     15136      5046  TIP3      OH2            27.8854394676        6.0627651950       13.3963000322  W2        6062            0.0000000000
     15137      5046  TIP3      H1             28.4497794676        5.5164251950       12.8492600322  W2        6062            0.0000000000
     15138      5046  TIP3      H2             27.7377794676        5.5409551950       14.1850600322  W2        6062            0.0000000000
     15139      5047  TIP3      OH2            22.8874094676        2.1993751950        9.8147800322  W2        6063            0.0000000000
     15140      5047  TIP3      H1             22.5703594676        1.2969051950        9.7793200322  W2        6063            0.0000000000
     15141      5047  TIP3      H2             23.6688194676        2.2011151950        9.2619400322  W2        6063            0.0000000000
     15142      5048  TIP3      OH2            27.0562894676       10.6641451950        7.4949800322  W2        6065            0.0000000000
     15143      5048  TIP3      H1             26.3113894676       10.1566751950        7.1727700322  W2        6065            0.0000000000
     15144      5048  TIP3      H2             26.9220094676       10.7129451950        8.4414600322  W2        6065            0.0000000000
     15145      5049  TIP3      OH2            30.9539694676        3.4781351950        5.6942400322  W2        6067            0.0000000000
     15146      5049  TIP3      H1             30.0153894676        3.5896951950        5.5431200322  W2        6067            0.0000000000
     15147      5049  TIP3      H2             31.2511794676        4.3348251950        6.0008100322  W2        6067            0.0000000000
     15148      5050  TIP3      OH2            31.6723194676        5.3454051950        7.3549800322  W2        6069            0.0000000000
     15149      5050  TIP3      H1             32.5642194676        5.2079051950        7.6741000322  W2        6069            0.0000000000
     15150      5050  TIP3      H2             31.7286794676        6.1360151950        6.8183300322  W2        6069            0.0000000000
     15151      5051  TIP3      OH2            22.1811194676        9.9591451950       13.2647700322  W2        6070            0.0000000000
     15152      5051  TIP3      H1             22.9258394676        9.9567151950       12.6634200322  W2        6070            0.0000000000
     15153      5051  TIP3      H2             22.2587794676        9.1355251950       13.7462800322  W2        6070            0.0000000000
     15154      5052  TIP3      OH2            29.1816994676       12.1225751950        6.5204400322  W2        6071            0.0000000000
     15155      5052  TIP3      H1             28.8865394676       12.9493651950        6.9019200322  W2        6071            0.0000000000
     15156      5052  TIP3      H2             28.4786994676       11.5032651950        6.7165800322  W2        6071            0.0000000000
     15157      5053  TIP3      OH2            36.5571894676        5.5548151950        7.0496500322  W2        6075            0.0000000000
     15158      5053  TIP3      H1             36.0028194676        5.1586151950        6.3774000322  W2        6075            0.0000000000
     15159      5053  TIP3      H2             36.6575494676        6.4653351950        6.7719800322  W2        6075            0.0000000000
     15160      5054  TIP3      OH2            34.8523594676       14.3408551950        7.5148600322  W2        6077            0.0000000000
     15161      5054  TIP3      H1             34.4794694676       13.5152351950        7.8239200322  W2        6077            0.0000000000
     15162      5054  TIP3      H2             35.1297094676       14.1577951950        6.6172000322  W2        6077            0.0000000000
     15163      5055  TIP3      OH2            32.0127494676        9.1488051950       14.5360500322  W2        6078            0.0000000000
     15164      5055  TIP3      H1             31.0844394676        8.9169951950       14.5089800322  W2        6078            0.0000000000
     15165      5055  TIP3      H2             32.4638594676        8.3717851950       14.2059300322  W2        6078            0.0000000000
     15166      5056  TIP3      OH2            24.5560594676       13.4769651950       10.6689200322  W2        6079            0.0000000000
     15167      5056  TIP3      H1             25.0832794676       14.2504051950       10.4688000322  W2        6079            0.0000000000
     15168      5056  TIP3      H2             23.6759094676       13.7018851950       10.3673200322  W2        6079            0.0000000000
     15169      5057  TIP3      OH2            20.3108294676        8.3393751950        5.2561600322  W2        6080            0.0000000000
     15170      5057  TIP3      H1             20.9268194676        8.9660951950        5.6356400322  W2        6080            0.0000000000
     15171      5057  TIP3      H2             19.4490894676        8.6553551950        5.5278100322  W2        6080            0.0000000000
     15172      5058  TIP3      OH2            25.9832894676       11.1399551950       10.2453500322  W2        6081            0.0000000000
     15173      5058  TIP3      H1             25.7422894676       12.0653951950       10.2868800322  W2        6081            0.0000000000
     15174      5058  TIP3      H2             25.2426494676       10.6810851950       10.6417400322  W2        6081            0.0000000000
     15175      5059  TIP3      OH2            24.6663694676       16.1617151950        9.7905700322  W2        6083            0.0000000000
     15176      5059  TIP3      H1             23.7164194676       16.2674551950        9.8419000322  W2        6083            0.0000000000
     15177      5059  TIP3      H2             25.0181794676       16.9824551950       10.1353200322  W2        6083            0.0000000000
     15178      5060  TIP3      OH2            32.2449194676       12.3174351950        5.3349200322  W2        6085            0.0000000000
     15179      5060  TIP3      H1             32.5982294676       11.9374151950        6.1392700322  W2        6085            0.0000000000
     15180      5060  TIP3      H2             31.2962694676       12.2239151950        5.4218500322  W2        6085            0.0000000000
     15181      5061  TIP3      OH2            36.7483594676       16.7966851950        5.5359400322  W2        6087            0.0000000000
     15182      5061  TIP3      H1             37.4921494676       17.3827351950        5.3961000322  W2        6087            0.0000000000
     15183      5061  TIP3      H2             36.0541694676       17.3652651950        5.8691800322  W2        6087            0.0000000000
     15184      5062  TIP3      OH2            33.1108494676       10.9896351950        7.5617100322  W2        6089            0.0000000000
     15185      5062  TIP3      H1             32.8336094676       10.2615651950        8.1178200322  W2        6089            0.0000000000
     15186      5062  TIP3      H2             34.0381494676       11.1088351950        7.7669700322  W2        6089            0.0000000000
     15187      5063  TIP3      OH2            26.3356994676       13.4290451950        3.7819200322  W2        6091            0.0000000000
     15188      5063  TIP3      H1             26.5746794676       12.6808551950        3.2348100322  W2        6091            0.0000000000
     15189      5063  TIP3      H2             26.0668294676       13.0412151950        4.6147000322  W2        6091            0.0000000000
     15190      5064  TIP3      OH2            25.2727594676       12.9994251950        6.2381800322  W2        6092            0.0000000000
     15191      5064  TIP3      H1             25.4195594676       12.4794051950        7.0282700322  W2        6092            0.0000000000
     15192      5064  TIP3      H2             25.2699294676       13.9061851950        6.5447700322  W2        6092            0.0000000000
     15193      5065  TIP3      OH2            21.7258694676       10.2517551950        6.7487200322  W2        6093            0.0000000000
     15194      5065  TIP3      H1             21.0397994676       10.6040051950        7.3156900322  W2        6093            0.0000000000
     15195      5065  TIP3      H2             22.2486594676       11.0147151950        6.5021500322  W2        6093            0.0000000000
     15196      5066  TIP3      OH2            30.3418694676        2.5663051950        8.1248500322  W2        6095            0.0000000000
     15197      5066  TIP3      H1             30.5616994676        3.0378451950        7.3213900322  W2        6095            0.0000000000
     15198      5066  TIP3      H2             30.9002694676        2.9605651950        8.7949100322  W2        6095            0.0000000000
     15199      5067  TIP3      OH2            28.0104794676       14.6967851950        6.9876000322  W2        6096            0.0000000000
     15200      5067  TIP3      H1             27.1940894676       15.1937551950        7.0400300322  W2        6096            0.0000000000
     15201      5067  TIP3      H2             28.5401094676       15.1721351950        6.3474800322  W2        6096            0.0000000000
     15202      5068  TIP3      OH2            27.5418594676        4.2941851950        8.9596900322  W2        6097            0.0000000000
     15203      5068  TIP3      H1             28.3541194676        4.7985051950        9.0058600322  W2        6097            0.0000000000
     15204      5068  TIP3      H2             27.2971594676        4.1491551950        9.8736500322  W2        6097            0.0000000000
     15205      5069  TIP3      OH2            28.4255294676        1.3754851950        9.8978000322  W2        6099            0.0000000000
     15206      5069  TIP3      H1             28.0788794676        1.9925451950       10.5422300322  W2        6099            0.0000000000
     15207      5069  TIP3      H2             29.0842194676        1.8760551950        9.4163500322  W2        6099            0.0000000000
     15208      5070  TIP3      OH2            25.3487894676       15.7405051950        6.9692900322  W2        6100            0.0000000000
     15209      5070  TIP3      H1             25.5096594676       16.5402551950        6.4685500322  W2        6100            0.0000000000
     15210      5070  TIP3      H2             25.1515694676       16.0471051950        7.8543500322  W2        6100            0.0000000000
     15211      5071  TIP3      OH2            24.0832294676        2.4384251950        6.5850500322  W2        6101            0.0000000000
     15212      5071  TIP3      H1             23.9997094676        3.3267351950        6.9316900322  W2        6101            0.0000000000
     15213      5071  TIP3      H2             24.9732594676        2.1730951950        6.8167300322  W2        6101            0.0000000000
     15214      5072  TIP3      OH2            32.8841794676        6.9375851950       13.0750500322  W2        6103            0.0000000000
     15215      5072  TIP3      H1             32.0866194676        6.5226051950       12.7465500322  W2        6103            0.0000000000
     15216      5072  TIP3      H2             33.3292894676        6.2469551950       13.5661000322  W2        6103            0.0000000000
     15217      5073  TIP3      OH2            22.3417594676       12.8656451950        5.6455000322  W2        6104            0.0000000000
     15218      5073  TIP3      H1             22.9339094676       13.5651251950        5.9217400322  W2        6104            0.0000000000
     15219      5073  TIP3      H2             22.8010594676       12.4325951950        4.9259600322  W2        6104            0.0000000000
     15220      5074  TIP3      OH2            20.6576794676        5.5299451950        4.7614400322  W2        6105            0.0000000000
     15221      5074  TIP3      H1             20.6129394676        6.4692551950        4.9401400322  W2        6105            0.0000000000
     15222      5074  TIP3      H2             19.7699994676        5.2944351950        4.4916500322  W2        6105            0.0000000000
     15223      5075  TIP3      OH2            33.9706394676       16.1938351950       14.6974000322  W2        6106            0.0000000000
     15224      5075  TIP3      H1             33.8150694676       16.8722751950       14.0403300322  W2        6106            0.0000000000
     15225      5075  TIP3      H2             34.9032794676       16.2657651950       14.9004600322  W2        6106            0.0000000000
     15226      5076  TIP3      OH2            21.4658794676        0.3116051950       13.4345400322  W2        6107            0.0000000000
     15227      5076  TIP3      H1             21.2368594676        0.3708551950       12.5070400322  W2        6107            0.0000000000
     15228      5076  TIP3      H2             21.0232194676       -0.4798448050       13.7409500322  W2        6107            0.0000000000
     15229      5077  TIP3      OH2            20.3962094676       14.2523151950        9.5951200322  W2        6108            0.0000000000
     15230      5077  TIP3      H1             19.5640694676       14.7245851950        9.6222600322  W2        6108            0.0000000000
     15231      5077  TIP3      H2             20.9420394676       14.7620751950        8.9964300322  W2        6108            0.0000000000
     15232      5078  TIP3      OH2            28.3738794676       15.2921851950        3.9205200322  W2        6111            0.0000000000
     15233      5078  TIP3      H1             27.7299794676       14.6610451950        4.2418900322  W2        6111            0.0000000000
     15234      5078  TIP3      H2             29.1357094676       14.7609851950        3.6888700322  W2        6111            0.0000000000
     15235      5079  TIP3      OH2            32.9781694676       15.1091751950        4.1543200322  W2        6113            0.0000000000
     15236      5079  TIP3      H1             33.2612094676       14.3146951950        4.6070100322  W2        6113            0.0000000000
     15237      5079  TIP3      H2             33.7179594676       15.3422751950        3.5934300322  W2        6113            0.0000000000
     15238      5080  TIP3      OH2            23.9328994676       11.0186651950        4.0118100322  W2        6115            0.0000000000
     15239      5080  TIP3      H1             23.9973094676       10.2246251950        4.5424500322  W2        6115            0.0000000000
     15240      5080  TIP3      H2             24.5858194676       10.8999451950        3.3220100322  W2        6115            0.0000000000
     15241      5081  TIP3      OH2            29.2852394676       12.0658351950        3.7476100322  W2        6117            0.0000000000
     15242      5081  TIP3      H1             29.0166494676       12.2460451950        4.6485000322  W2        6117            0.0000000000
     15243      5081  TIP3      H2             29.0787994676       11.1404551950        3.6161900322  W2        6117            0.0000000000
     15244      5082  TIP3      OH2            25.0822794676        8.9912851950        6.3176100322  W2        6120            0.0000000000
     15245      5082  TIP3      H1             24.6224794676        8.5071151950        7.0034600322  W2        6120            0.0000000000
     15246      5082  TIP3      H2             25.3371494676        8.3228251950        5.6816600322  W2        6120            0.0000000000
     15247      5083  TIP3      OH2            26.1533194676        7.2344651950        4.5799300322  W2        6122            0.0000000000
     15248      5083  TIP3      H1             25.9728194676        7.0795851950        3.6527600322  W2        6122            0.0000000000
     15249      5083  TIP3      H2             27.1033694676        7.3423351950        4.6247200322  W2        6122            0.0000000000
     15250      5084  TIP3      OH2            35.5431494676        9.5888851950        4.0257400322  W2        6124            0.0000000000
     15251      5084  TIP3      H1             35.2696294676        9.1644351950        3.2125700322  W2        6124            0.0000000000
     15252      5084  TIP3      H2             35.5825594676       10.5203351950        3.8087800322  W2        6124            0.0000000000
     15253      5085  TIP3      OH2            26.0504894676       17.9248351950        5.5812900322  W2        6138            0.0000000000
     15254      5085  TIP3      H1             26.9835594676       18.0827051950        5.7251300322  W2        6138            0.0000000000
     15255      5085  TIP3      H2             25.7863694676       18.6001351950        4.9564400322  W2        6138            0.0000000000
     15256      5086  TIP3      OH2            19.6189794676       12.5612151950        5.0641000322  W2        6139            0.0000000000
     15257      5086  TIP3      H1             20.5328994676       12.6401051950        5.3374900322  W2        6139            0.0000000000
     15258      5086  TIP3      H2             19.6262894676       11.8741751950        4.3976600322  W2        6139            0.0000000000
     15259      5087  TIP3      OH2            18.2680394676       17.9540651950       10.1414900322  W2        6140            0.0000000000
     15260      5087  TIP3      H1             17.6207494676       17.4922351950        9.6086100322  W2        6140            0.0000000000
     15261      5087  TIP3      H2             18.6224994676       17.2823951950       10.7241100322  W2        6140            0.0000000000
     15262      5088  TIP3      OH2            19.1379594676       16.0347651950       11.9461100322  W2        6141            0.0000000000
     15263      5088  TIP3      H1             18.8036394676       15.1544951950       12.1181300322  W2        6141            0.0000000000
     15264      5088  TIP3      H2             19.3601994676       16.3802651950       12.8106700322  W2        6141            0.0000000000
     15265      5089  TIP3      OH2            36.0014294676       10.4576951950        8.0007800322  W2        6145            0.0000000000
     15266      5089  TIP3      H1             36.8515694676       10.8787851950        8.1279400322  W2        6145            0.0000000000
     15267      5089  TIP3      H2             36.0069394676        9.7177051950        8.6079200322  W2        6145            0.0000000000
     15268      5090  TIP3      OH2            36.3959894676        8.5114351950        9.8243500322  W2        6146            0.0000000000
     15269      5090  TIP3      H1             35.6694494676        8.0316951950       10.2221100322  W2        6146            0.0000000000
     15270      5090  TIP3      H2             36.9773194676        8.7169051950       10.5565100322  W2        6146            0.0000000000
     15271      5091  TIP3      OH2            36.1551094676       11.2961851950       14.7721100322  W2        6147            0.0000000000
     15272      5091  TIP3      H1             36.9885294676       10.9181851950       14.4914700322  W2        6147            0.0000000000
     15273      5091  TIP3      H2             36.2671394676       12.2393051950       14.6530200322  W2        6147            0.0000000000
     15274      5092  TIP3      OH2            36.6642994676        8.4122851950        6.2154800322  W2        6149            0.0000000000
     15275      5092  TIP3      H1             36.1424094676        8.7686951950        5.4965700322  W2        6149            0.0000000000
     15276      5092  TIP3      H2             36.6312194676        9.0870651950        6.8935700322  W2        6149            0.0000000000
     15277      5093  TIP3      OH2            35.0131994676        5.6518451950        4.7661900322  W2        6150            0.0000000000
     15278      5093  TIP3      H1             35.1096394676        6.3185451950        4.0861600322  W2        6150            0.0000000000
     15279      5093  TIP3      H2             34.8731594676        4.8364751950        4.2847400322  W2        6150            0.0000000000
     15280      5094  TIP3      OH2            34.1826694676        7.0320851950       10.3872200322  W2        6151            0.0000000000
     15281      5094  TIP3      H1             34.0325494676        6.0869451950       10.3670000322  W2        6151            0.0000000000
     15282      5094  TIP3      H2             33.8291194676        7.3132251950       11.2311300322  W2        6151            0.0000000000
     15283      5095  TIP3      OH2            19.2179094676        9.1103051950       14.3976000322  W2        6152            0.0000000000
     15284      5095  TIP3      H1             19.4021994676        9.0284751950       13.4618900322  W2        6152            0.0000000000
     15285      5095  TIP3      H2             20.0671994676        8.9860051950       14.8212400322  W2        6152            0.0000000000
     15286      5096  TIP3      OH2            34.2605794676        3.0598251950        3.8837400322  W2        6155            0.0000000000
     15287      5096  TIP3      H1             34.8711594676        2.6885051950        4.5205600322  W2        6155            0.0000000000
     15288      5096  TIP3      H2             33.4237294676        2.6385151950        4.0797400322  W2        6155            0.0000000000
     15289      5097  TIP3      OH2            33.8931494676        4.6146651950        8.8497300322  W2        6156            0.0000000000
     15290      5097  TIP3      H1             34.1728594676        3.7077051950        8.9739000322  W2        6156            0.0000000000
     15291      5097  TIP3      H2             34.6523194676        5.0488151950        8.4606500322  W2        6156            0.0000000000
     15292      5098  TIP3      OH2            34.5049794676        5.1964051950       14.2856200322  W2        6157            0.0000000000
     15293      5098  TIP3      H1             35.4377794676        5.4083951950       14.2512200322  W2        6157            0.0000000000
     15294      5098  TIP3      H2             34.2697294676        5.2976151950       15.2079200322  W2        6157            0.0000000000
     15295      5099  TIP3      OH2            34.5066294676        1.8775951950        8.8979300322  W2        6161            0.0000000000
     15296      5099  TIP3      H1             34.6891294676        1.4287451950        9.7234300322  W2        6161            0.0000000000
     15297      5099  TIP3      H2             33.9069194676        1.2930351950        8.4343900322  W2        6161            0.0000000000
     15298      5100  TIP3      OH2            20.0366394676        2.6929651950       13.4297700322  W2        6162            0.0000000000
     15299      5100  TIP3      H1             20.4817994676        1.9012151950       13.7317400322  W2        6162            0.0000000000
     15300      5100  TIP3      H2             20.5029394676        3.4094851950       13.8603300322  W2        6162            0.0000000000
     15301      5101  TIP3      OH2            18.3406694676        5.6922651950       14.4987900322  W2        6163            0.0000000000
     15302      5101  TIP3      H1             18.8326494676        5.4713151950       13.7079900322  W2        6163            0.0000000000
     15303      5101  TIP3      H2             18.7027594676        6.5326051950       14.7797400322  W2        6163            0.0000000000
     15304      5102  TIP3      OH2            36.3732494676        1.9454051950        5.4259600322  W2        6165            0.0000000000
     15305      5102  TIP3      H1             36.7855094676        1.2239751950        4.9507600322  W2        6165            0.0000000000
     15306      5102  TIP3      H2             37.0548994676        2.6148651950        5.4843900322  W2        6165            0.0000000000
     15307      5103  TIP3      OH2            18.6543194676        1.9501751950        8.5530300322  W2        6166            0.0000000000
     15308      5103  TIP3      H1             17.7291594676        2.1588351950        8.4235800322  W2        6166            0.0000000000
     15309      5103  TIP3      H2             19.1083094676        2.4342551950        7.8632600322  W2        6166            0.0000000000
     15310      5104  TIP3      OH2            33.4250394676       16.9343451950       10.4987700322  W2        6167            0.0000000000
     15311      5104  TIP3      H1             34.0773294676       16.5865551950        9.8906800322  W2        6167            0.0000000000
     15312      5104  TIP3      H2             33.9354194676       17.4226651950       11.1447400322  W2        6167            0.0000000000
     15313      5105  TIP3      OH2            20.5805594676       16.7172451950       14.2579700322  W2        6179            0.0000000000
     15314      5105  TIP3      H1             20.5621594676       16.2917551950       15.1152000322  W2        6179            0.0000000000
     15315      5105  TIP3      H2             21.3853494676       16.3987451950       13.8491900322  W2        6179            0.0000000000
     15316      5106  TIP3      OH2            22.7218694676       15.4271151950       12.9129600322  W2        6180            0.0000000000
     15317      5106  TIP3      H1             22.5029394676       14.5108551950       13.0825600322  W2        6180            0.0000000000
     15318      5106  TIP3      H2             23.5460894676       15.5671551950       13.3791000322  W2        6180            0.0000000000
     15319      5107  TIP3      OH2            25.2591194676       15.8970451950       13.7617600322  W2        6181            0.0000000000
     15320      5107  TIP3      H1             25.4716894676       15.0089451950       13.4748500322  W2        6181            0.0000000000
     15321      5107  TIP3      H2             25.3236294676       15.8628151950       14.7161600322  W2        6181            0.0000000000
     15322      5108  TIP3      OH2            28.7674894676        1.5611051950       12.9060900322  W2        6182            0.0000000000
     15323      5108  TIP3      H1             28.0931694676        0.9316651950       13.1616700322  W2        6182            0.0000000000
     15324      5108  TIP3      H2             29.3314094676        1.0769951950       12.3028800322  W2        6182            0.0000000000
     15325      5109  TIP3      OH2            33.9102094676       -0.3314948050       13.0188000322  W2        6183            0.0000000000
     15326      5109  TIP3      H1             34.5139694676        0.2160451950       12.5169000322  W2        6183            0.0000000000
     15327      5109  TIP3      H2             33.0404094676       -0.0124548050       12.7782100322  W2        6183            0.0000000000
     15328      5110  TIP3      OH2            35.6372494676        0.8073751950       11.3518900322  W2        6184            0.0000000000
     15329      5110  TIP3      H1             36.2489994676        0.2929451950       10.8252500322  W2        6184            0.0000000000
     15330      5110  TIP3      H2             36.0195894676        1.6845851950       11.3753300322  W2        6184            0.0000000000
     15331      5111  TIP3      OH2            21.0942394676        0.1951351950       10.7280800322  W2        6185            0.0000000000
     15332      5111  TIP3      H1             20.3172194676       -0.0393748050       10.2206700322  W2        6185            0.0000000000
     15333      5111  TIP3      H2             21.6245994676       -0.6016548050       10.7368800322  W2        6185            0.0000000000
     15334      5112  TIP3      OH2            19.9305794676       -0.0070548050        6.5316900322  W2        6186            0.0000000000
     15335      5112  TIP3      H1             20.3696494676        0.6039951950        5.9400400322  W2        6186            0.0000000000
     15336      5112  TIP3      H2             19.2968194676        0.5313551950        7.0056900322  W2        6186            0.0000000000
     15337      5113  TIP3      OH2            25.6734994676        0.1218451950       10.5413900322  W2        6187            0.0000000000
     15338      5113  TIP3      H1             26.5478394676        0.5102751950       10.5118200322  W2        6187            0.0000000000
     15339      5113  TIP3      H2             25.5375794676       -0.0933748050       11.4641100322  W2        6187            0.0000000000
     15340      5114  TIP3      OH2            31.2303394676        0.1518251950       12.1905600322  W2        6188            0.0000000000
     15341      5114  TIP3      H1             31.3064994676        0.2469851950       11.2411600322  W2        6188            0.0000000000
     15342      5114  TIP3      H2             30.9552594676       -0.7558848050       12.3194700322  W2        6188            0.0000000000
     15343      5115  TIP3      OH2            32.5835994676        0.1776051950        7.8830600322  W2        6189            0.0000000000
     15344      5115  TIP3      H1             31.8807094676        0.7925251950        7.6732000322  W2        6189            0.0000000000
     15345      5115  TIP3      H2             32.1387394676       -0.6597248050        8.0141500322  W2        6189            0.0000000000
     15346      5116  TIP3      OH2            19.8315294676       15.9411651950        7.4292000322  W2        6190            0.0000000000
     15347      5116  TIP3      H1             19.1465194676       15.9030551950        6.7617100322  W2        6190            0.0000000000
     15348      5116  TIP3      H2             19.8352494676       16.8539251950        7.7174100322  W2        6190            0.0000000000
     15349      5117  TIP3      OH2            21.7914894676        1.9090951950        4.9741000322  W2        6191            0.0000000000
     15350      5117  TIP3      H1             22.2828294676        1.2793351950        4.4466500322  W2        6191            0.0000000000
     15351      5117  TIP3      H2             22.4151194676        2.2050351950        5.6372200322  W2        6191            0.0000000000
     15352      5118  TIP3      OH2            26.8174994676        2.2022451950        7.4311500322  W2        6192            0.0000000000
     15353      5118  TIP3      H1             26.9956294676        1.5555651950        8.1140100322  W2        6192            0.0000000000
     15354      5118  TIP3      H2             26.7641194676        3.0360151950        7.8982600322  W2        6192            0.0000000000
     15355      5119  TIP3      OH2            28.6958794676       17.1506551950        5.8268200322  W2        6193            0.0000000000
     15356      5119  TIP3      H1             29.5618994676       17.5173951950        5.6486400322  W2        6193            0.0000000000
     15357      5119  TIP3      H2             28.4491594676       16.7114551950        5.0129000322  W2        6193            0.0000000000
     15358      5120  TIP3      OH2            35.4048394676       16.7136851950        8.5059300322  W2        6194            0.0000000000
     15359      5120  TIP3      H1             35.2105494676       15.9658951950        7.9408900322  W2        6194            0.0000000000
     15360      5120  TIP3      H2             35.3658494676       17.4716951950        7.9227200322  W2        6194            0.0000000000
     15361      5121  TIP3      OH2            21.6496494676       16.8612451950        4.4544100322  W2        6197            0.0000000000
     15362      5121  TIP3      H1             21.3821094676       17.1475351950        5.3277200322  W2        6197            0.0000000000
     15363      5121  TIP3      H2             22.4209094676       16.3151651950        4.6066600322  W2        6197            0.0000000000
     15364      5122  TIP3      OH2            37.8634894676        6.3307951950        9.6264300322  W2        6200            0.0000000000
     15365      5122  TIP3      H1             37.4158294676        7.1766651950        9.6080800322  W2        6200            0.0000000000
     15366      5122  TIP3      H2             37.3026094676        5.7512151950        9.1109400322  W2        6200            0.0000000000
     15367      5123  TIP3      OH2            37.6344394676       13.6480451950       14.2612300322  W2        6202            0.0000000000
     15368      5123  TIP3      H1             38.5804994676       13.5037451950       14.2421800322  W2        6202            0.0000000000
     15369      5123  TIP3      H2             37.5220694676       14.4323251950       14.7983500322  W2        6202            0.0000000000
     15370      5124  TIP3      OH2            37.2011594676        3.0632351950       11.2286000322  W2        6203            0.0000000000
     15371      5124  TIP3      H1             37.8319294676        3.0344451950       11.9479900322  W2        6203            0.0000000000
     15372      5124  TIP3      H2             37.6505894676        2.6381051950       10.4981900322  W2        6203            0.0000000000
     15373      5125  TIP3      OH2            37.1240394676       17.9540651950       10.1414900322  W2        6206            0.0000000000
     15374      5125  TIP3      H1             36.4767494676       17.4922351950        9.6086100322  W2        6206            0.0000000000
     15375      5125  TIP3      H2             37.4784994676       17.2823951950       10.7241100322  W2        6206            0.0000000000
     15376      5126  TIP3      OH2            37.9939594676       16.0347651950       11.9461100322  W2        6207            0.0000000000
     15377      5126  TIP3      H1             37.6596394676       15.1544951950       12.1181300322  W2        6207            0.0000000000
     15378      5126  TIP3      H2             38.2161994676       16.3802651950       12.8106700322  W2        6207            0.0000000000
     15379      5127  TIP3      OH2            38.0739094676        9.1103051950       14.3976000322  W2        6208            0.0000000000
     15380      5127  TIP3      H1             38.2581994676        9.0284751950       13.4618900322  W2        6208            0.0000000000
     15381      5127  TIP3      H2             38.9231994676        8.9860051950       14.8212400322  W2        6208            0.0000000000
     15382      5128  TIP3      OH2            37.1966694676        5.6922651950       14.4987900322  W2        6210            0.0000000000
     15383      5128  TIP3      H1             37.6886494676        5.4713151950       13.7079900322  W2        6210            0.0000000000
     15384      5128  TIP3      H2             37.5587594676        6.5326051950       14.7797400322  W2        6210            0.0000000000
     15385      5129  TIP3      OH2            37.5103194676        1.9501751950        8.5530300322  W2        6211            0.0000000000
     15386      5129  TIP3      H1             36.5851594676        2.1588351950        8.4235800322  W2        6211            0.0000000000
     15387      5129  TIP3      H2             37.9643094676        2.4342551950        7.8632600322  W2        6211            0.0000000000
     15388      5130  TIP3      OH2           -26.3955005324       28.2073651950       10.6868300322  W2        6213            0.0000000000
     15389      5130  TIP3      H1            -26.3063905324       29.1511851950       10.5545400322  W2        6213            0.0000000000
     15390      5130  TIP3      H2            -27.0337405324       27.9320051950       10.0287700322  W2        6213            0.0000000000
     15391      5131  TIP3      OH2           -27.4623705324       27.4624351950       14.1056500322  W2        6214            0.0000000000
     15392      5131  TIP3      H1            -27.5006205324       26.8160651950       14.8106100322  W2        6214            0.0000000000
     15393      5131  TIP3      H2            -27.7847205324       26.9958751950       13.3345200322  W2        6214            0.0000000000
     15394      5132  TIP3      OH2           -23.7563505324       30.4014751950       12.4071600322  W2        6216            0.0000000000
     15395      5132  TIP3      H1            -24.1970805324       29.6810751950       12.8577200322  W2        6216            0.0000000000
     15396      5132  TIP3      H2            -23.7693805324       31.1221951950       13.0369300322  W2        6216            0.0000000000
     15397      5133  TIP3      OH2           -34.1705605324       31.5265351950       14.2335500322  W2        6217            0.0000000000
     15398      5133  TIP3      H1            -34.5400405324       30.7245851950       13.8639800322  W2        6217            0.0000000000
     15399      5133  TIP3      H2            -33.2294505324       31.3580251950       14.2798900322  W2        6217            0.0000000000
     15400      5134  TIP3      OH2           -37.5605105324       25.1867951950        9.6264300322  W2        6218            0.0000000000
     15401      5134  TIP3      H1            -38.0081705324       26.0326651950        9.6080800322  W2        6218            0.0000000000
     15402      5134  TIP3      H2            -38.1213905324       24.6072151950        9.1109400322  W2        6218            0.0000000000
     15403      5135  TIP3      OH2           -36.8499005324       27.3487551950       11.7522300322  W2        6219            0.0000000000
     15404      5135  TIP3      H1            -36.6365505324       26.5789151950       12.2795300322  W2        6219            0.0000000000
     15405      5135  TIP3      H2            -36.1121405324       27.4384251950       11.1489900322  W2        6219            0.0000000000
     15406      5136  TIP3      OH2           -26.6448005324       35.5056451950       12.6192000322  W2        6220            0.0000000000
     15407      5136  TIP3      H1            -26.0251605324       34.8291151950       12.3461200322  W2        6220            0.0000000000
     15408      5136  TIP3      H2            -26.8530605324       35.2877251950       13.5276900322  W2        6220            0.0000000000
     15409      5137  TIP3      OH2           -29.0729305324       29.8945751950       14.5117500322  W2        6221            0.0000000000
     15410      5137  TIP3      H1            -28.7691405324       29.2087151950       13.9171600322  W2        6221            0.0000000000
     15411      5137  TIP3      H2            -28.3515305324       30.0134451950       15.1295500322  W2        6221            0.0000000000
     15412      5138  TIP3      OH2           -25.9322305324       24.2888151950       14.8392300322  W2        6223            0.0000000000
     15413      5138  TIP3      H1            -25.7896405324       23.3425151950       14.8593900322  W2        6223            0.0000000000
     15414      5138  TIP3      H2            -26.0383305324       24.4957951950       13.9107200322  W2        6223            0.0000000000
     15415      5139  TIP3      OH2           -32.7774005324       22.3904551950       12.1117100322  W2        6224            0.0000000000
     15416      5139  TIP3      H1            -32.7342905324       23.2503051950       11.6933400322  W2        6224            0.0000000000
     15417      5139  TIP3      H2            -33.2349905324       21.8379251950       11.4780300322  W2        6224            0.0000000000
     15418      5140  TIP3      OH2           -25.0551305324       22.5210151950       10.5125400322  W2        6225            0.0000000000
     15419      5140  TIP3      H1            -24.4087005324       22.1923351950       11.1373000322  W2        6225            0.0000000000
     15420      5140  TIP3      H2            -24.5451905324       23.0389151950        9.8896800322  W2        6225            0.0000000000
     15421      5141  TIP3      OH2           -36.1572505324       24.7870351950       12.8738500322  W2        6226            0.0000000000
     15422      5141  TIP3      H1            -35.5035905324       24.2372051950       13.3058600322  W2        6226            0.0000000000
     15423      5141  TIP3      H2            -36.1333205324       24.5129351950       11.9570500322  W2        6226            0.0000000000
     15424      5142  TIP3      OH2           -31.0008005324       26.3371651950       12.0890000322  W2        6227            0.0000000000
     15425      5142  TIP3      H1            -30.3847005324       25.8107051950       12.5984000322  W2        6227            0.0000000000
     15426      5142  TIP3      H2            -31.5869205324       25.6970351950       11.6853600322  W2        6227            0.0000000000
     15427      5143  TIP3      OH2           -26.5982305324       30.8084051950        9.7297000322  W2        6230            0.0000000000
     15428      5143  TIP3      H1            -26.8937205324       30.4856351950        8.8783900322  W2        6230            0.0000000000
     15429      5143  TIP3      H2            -26.9224505324       31.7080751950        9.7709600322  W2        6230            0.0000000000
     15430      5144  TIP3      OH2           -23.2912905324       21.8119451950       12.4931300322  W2        6232            0.0000000000
     15431      5144  TIP3      H1            -23.5064905324       21.0462851950       13.0257300322  W2        6232            0.0000000000
     15432      5144  TIP3      H2            -22.6355505324       22.2844051950       13.0059800322  W2        6232            0.0000000000
     15433      5145  TIP3      OH2           -34.3734805324       23.2004751950       14.1380100322  W2        6233            0.0000000000
     15434      5145  TIP3      H1            -33.7598505324       23.8332351950       14.5112500322  W2        6233            0.0000000000
     15435      5145  TIP3      H2            -33.8614105324       22.7279751950       13.4817000322  W2        6233            0.0000000000
     15436      5146  TIP3      OH2           -36.8695505324       30.6189551950        8.0422400322  W2        6235            0.0000000000
     15437      5146  TIP3      H1            -37.1414605324       30.8480551950        7.1535300322  W2        6235            0.0000000000
     15438      5146  TIP3      H2            -36.8239805324       31.4568351950        8.5027700322  W2        6235            0.0000000000
     15439      5147  TIP3      OH2           -23.2445805324       32.2405451950       14.7550900322  W2        6236            0.0000000000
     15440      5147  TIP3      H1            -24.1862105324       32.2989351950       14.9167800322  W2        6236            0.0000000000
     15441      5147  TIP3      H2            -22.9679705324       33.1465951950       14.6180600322  W2        6236            0.0000000000
     15442      5148  TIP3      OH2           -29.9407405324       18.6138051950       13.6382800322  W2        6238            0.0000000000
     15443      5148  TIP3      H1            -30.0583205324       17.6654051950       13.5841100322  W2        6238            0.0000000000
     15444      5148  TIP3      H2            -30.7957305324       18.9464151950       13.9113900322  W2        6238            0.0000000000
     15445      5149  TIP3      OH2           -24.9924605324       34.0218951950       11.3802500322  W2        6239            0.0000000000
     15446      5149  TIP3      H1            -24.5672305324       33.3146851950       10.8952100322  W2        6239            0.0000000000
     15447      5149  TIP3      H2            -24.6754605324       34.8231651950       10.9634700322  W2        6239            0.0000000000
     15448      5150  TIP3      OH2           -23.8328105324       31.9227451950        9.8889100322  W2        6240            0.0000000000
     15449      5150  TIP3      H1            -24.0903305324       31.2327551950        9.2775000322  W2        6240            0.0000000000
     15450      5150  TIP3      H2            -23.7617305324       31.4798651950       10.7345000322  W2        6240            0.0000000000
     15451      5151  TIP3      OH2           -27.6742505324       27.4513651950        8.1388600322  W2        6242            0.0000000000
     15452      5151  TIP3      H1            -28.3857005324       27.9863351950        7.7869100322  W2        6242            0.0000000000
     15453      5151  TIP3      H2            -26.9832905324       27.5065751950        7.4787500322  W2        6242            0.0000000000
     15454      5152  TIP3      OH2           -27.6203305324       25.9087951950        5.1773600322  W2        6243            0.0000000000
     15455      5152  TIP3      H1            -26.9193405324       25.9314851950        5.8287600322  W2        6243            0.0000000000
     15456      5152  TIP3      H2            -27.3180405324       25.2807651950        4.5212900322  W2        6243            0.0000000000
     15457      5153  TIP3      OH2           -24.2684805324       27.6606951950        9.0904500322  W2        6245            0.0000000000
     15458      5153  TIP3      H1            -25.0003805324       27.8890651950        9.6635100322  W2        6245            0.0000000000
     15459      5153  TIP3      H2            -23.8212605324       26.9469651950        9.5452000322  W2        6245            0.0000000000
     15460      5154  TIP3      OH2           -32.6231105324       28.2913151950       10.9729500322  W2        6247            0.0000000000
     15461      5154  TIP3      H1            -32.9535905324       27.9206551950       10.1546500322  W2        6247            0.0000000000
     15462      5154  TIP3      H2            -32.0347005324       27.6207151950       11.3197800322  W2        6247            0.0000000000
     15463      5155  TIP3      OH2           -31.2563605324       31.7193751950       13.6541700322  W2        6248            0.0000000000
     15464      5155  TIP3      H1            -31.3512305324       31.1406851950       12.8976300322  W2        6248            0.0000000000
     15465      5155  TIP3      H2            -30.5270005324       31.3479451950       14.1504500322  W2        6248            0.0000000000
     15466      5156  TIP3      OH2           -32.2565605324       27.0598751950       14.6064500322  W2        6249            0.0000000000
     15467      5156  TIP3      H1            -31.6913105324       27.1812951950       13.8435700322  W2        6249            0.0000000000
     15468      5156  TIP3      H2            -31.9376705324       27.6973751950       15.2453000322  W2        6249            0.0000000000
     15469      5157  TIP3      OH2           -25.3975305324       26.8229851950        6.7755700322  W2        6252            0.0000000000
     15470      5157  TIP3      H1            -24.8179805324       26.9730151950        7.5224600322  W2        6252            0.0000000000
     15471      5157  TIP3      H2            -24.9835305324       27.2937251950        6.0522100322  W2        6252            0.0000000000
     15472      5158  TIP3      OH2           -27.6710405324       33.5598351950       10.2108800322  W2        6254            0.0000000000
     15473      5158  TIP3      H1            -27.1972805324       33.8554651950       10.9883000322  W2        6254            0.0000000000
     15474      5158  TIP3      H2            -28.2341105324       34.2979951950        9.9778400322  W2        6254            0.0000000000
     15475      5159  TIP3      OH2           -21.6986905324       18.5730251950        6.5885400322  W2        6256            0.0000000000
     15476      5159  TIP3      H1            -22.5986205324       18.7119251950        6.8836000322  W2        6256            0.0000000000
     15477      5159  TIP3      H2            -21.4468505324       19.4044851950        6.1867100322  W2        6256            0.0000000000
     15478      5160  TIP3      OH2           -33.6328405324       27.3607451950        8.5622300322  W2        6257            0.0000000000
     15479      5160  TIP3      H1            -33.9247105324       28.1289151950        8.0713600322  W2        6257            0.0000000000
     15480      5160  TIP3      H2            -34.3073205324       26.7013651950        8.3993700322  W2        6257            0.0000000000
     15481      5161  TIP3      OH2           -20.5095505324       32.9392651950        4.9649300322  W2        6258            0.0000000000
     15482      5161  TIP3      H1            -20.4362005324       33.8782851950        5.1354600322  W2        6258            0.0000000000
     15483      5161  TIP3      H2            -19.6040405324       32.6341251950        4.9086600322  W2        6258            0.0000000000
     15484      5162  TIP3      OH2           -37.7895605324       32.5040451950       14.2612300322  W2        6260            0.0000000000
     15485      5162  TIP3      H1            -36.8435005324       32.3597451950       14.2421800322  W2        6260            0.0000000000
     15486      5162  TIP3      H2            -37.9019305324       33.2883251950       14.7983500322  W2        6260            0.0000000000
     15487      5163  TIP3      OH2           -28.1987305324       36.5163051950        8.6258000322  W2        6263            0.0000000000
     15488      5163  TIP3      H1            -28.2741305324       36.3950251950        7.6793200322  W2        6263            0.0000000000
     15489      5163  TIP3      H2            -28.1658605324       37.4655751950        8.7442600322  W2        6263            0.0000000000
     15490      5164  TIP3      OH2           -34.5453505324       35.3050051950       10.4067000322  W2        6264            0.0000000000
     15491      5164  TIP3      H1            -34.3933105324       34.9570451950       11.2853500322  W2        6264            0.0000000000
     15492      5164  TIP3      H2            -35.3963105324       34.9487351950       10.1514200322  W2        6264            0.0000000000
     15493      5165  TIP3      OH2           -25.0971305324       35.6703251950        5.6280400322  W2        6265            0.0000000000
     15494      5165  TIP3      H1            -24.7222905324       34.9259351950        5.1573000322  W2        6265            0.0000000000
     15495      5165  TIP3      H2            -25.0927605324       35.4003851950        6.5463700322  W2        6265            0.0000000000
     15496      5166  TIP3      OH2           -25.4283205324       35.5960351950        8.3772600322  W2        6266            0.0000000000
     15497      5166  TIP3      H1            -26.3633405324       35.6962251950        8.5559600322  W2        6266            0.0000000000
     15498      5166  TIP3      H2            -25.1481305324       34.8866351950        8.9555800322  W2        6266            0.0000000000
     15499      5167  TIP3      OH2           -32.6719805324       19.5172551950       14.4159100322  W2        6269            0.0000000000
     15500      5167  TIP3      H1            -33.5336105324       19.4300751950       14.0082000322  W2        6269            0.0000000000
     15501      5167  TIP3      H2            -32.6944105324       20.3732651950       14.8436700322  W2        6269            0.0000000000
     15502      5168  TIP3      OH2           -23.9202205324       27.8558151950        4.4053600322  W2        6272            0.0000000000
     15503      5168  TIP3      H1            -23.8781405324       27.6332051950        3.4753600322  W2        6272            0.0000000000
     15504      5168  TIP3      H2            -23.0710105324       28.2545251950        4.5953500322  W2        6272            0.0000000000
     15505      5169  TIP3      OH2           -28.3474705324       21.7316351950        5.0756900322  W2        6273            0.0000000000
     15506      5169  TIP3      H1            -28.6009905324       21.7507951950        5.9985000322  W2        6273            0.0000000000
     15507      5169  TIP3      H2            -28.6042605324       20.8601751950        4.7743100322  W2        6273            0.0000000000
     15508      5170  TIP3      OH2           -32.5840605324       24.7037151950       10.4229300322  W2        6275            0.0000000000
     15509      5170  TIP3      H1            -33.4767705324       24.3633251950       10.3643100322  W2        6275            0.0000000000
     15510      5170  TIP3      H2            -32.1334005324       24.3268051950        9.6672500322  W2        6275            0.0000000000
     15511      5171  TIP3      OH2           -27.0485105324       25.1197451950        9.2400100322  W2        6276            0.0000000000
     15512      5171  TIP3      H1            -27.4574805324       25.9346051950        8.9484900322  W2        6276            0.0000000000
     15513      5171  TIP3      H2            -26.3278905324       24.9797551950        8.6257200322  W2        6276            0.0000000000
     15514      5172  TIP3      OH2           -26.0437405324       24.5657851950       12.0539800322  W2        6278            0.0000000000
     15515      5172  TIP3      H1            -26.2392905324       25.1714651950       11.3390400322  W2        6278            0.0000000000
     15516      5172  TIP3      H2            -25.8624805324       23.7323051950       11.6196100322  W2        6278            0.0000000000
     15517      5173  TIP3      OH2           -31.4651805324       22.1772851950        4.1767300322  W2        6280            0.0000000000
     15518      5173  TIP3      H1            -31.8961105324       21.7322951950        4.9064700322  W2        6280            0.0000000000
     15519      5173  TIP3      H2            -32.1833105324       22.5489151950        3.6644800322  W2        6280            0.0000000000
     15520      5174  TIP3      OH2           -38.2228405324       21.9192351950       11.2286000322  W2        6281            0.0000000000
     15521      5174  TIP3      H1            -37.5920705324       21.8904451950       11.9479900322  W2        6281            0.0000000000
     15522      5174  TIP3      H2            -37.7734105324       21.4941051950       10.4981900322  W2        6281            0.0000000000
     15523      5175  TIP3      OH2           -36.9486305324       22.6654351950        6.6526400322  W2        6282            0.0000000000
     15524      5175  TIP3      H1            -36.4744605324       23.2564251950        6.0677300322  W2        6282            0.0000000000
     15525      5175  TIP3      H2            -37.6659905324       23.1957251950        6.9996500322  W2        6282            0.0000000000
     15526      5176  TIP3      OH2           -30.0025305324       22.1314651950       11.5093400322  W2        6284            0.0000000000
     15527      5176  TIP3      H1            -30.9134205324       22.1881451950       11.7979400322  W2        6284            0.0000000000
     15528      5176  TIP3      H2            -29.4972405324       22.0710151950       12.3200600322  W2        6284            0.0000000000
     15529      5177  TIP3      OH2           -35.1741905324       23.7600951950       10.3361000322  W2        6285            0.0000000000
     15530      5177  TIP3      H1            -36.0633905324       23.8596451950        9.9960600322  W2        6285            0.0000000000
     15531      5177  TIP3      H2            -34.8777005324       22.9183951950        9.9898900322  W2        6285            0.0000000000
     15532      5178  TIP3      OH2           -31.5210105324       23.7603551950        7.9925600322  W2        6286            0.0000000000
     15533      5178  TIP3      H1            -30.5894605324       23.8893551950        8.1708700322  W2        6286            0.0000000000
     15534      5178  TIP3      H2            -31.7359805324       24.4297851950        7.3430300322  W2        6286            0.0000000000
     15535      5179  TIP3      OH2           -25.5973405324       21.3660951950       14.7735200322  W2        6287            0.0000000000
     15536      5179  TIP3      H1            -26.2741805324       21.4974051950       15.4374900322  W2        6287            0.0000000000
     15537      5179  TIP3      H2            -26.0828505324       21.2110451950       13.9632900322  W2        6287            0.0000000000
     15538      5180  TIP3      OH2           -32.8469905324       24.9545751950        5.5591700322  W2        6288            0.0000000000
     15539      5180  TIP3      H1            -33.3894805324       24.5749551950        4.8679300322  W2        6288            0.0000000000
     15540      5180  TIP3      H2            -32.0135005324       25.1490451950        5.1305800322  W2        6288            0.0000000000
     15541      5181  TIP3      OH2           -28.6825605324       24.9187651950       13.3963000322  W2        6291            0.0000000000
     15542      5181  TIP3      H1            -28.1182205324       24.3724251950       12.8492600322  W2        6291            0.0000000000
     15543      5181  TIP3      H2            -28.8302205324       24.3969551950       14.1850600322  W2        6291            0.0000000000
     15544      5182  TIP3      OH2           -33.6805905324       21.0553751950        9.8147800322  W2        6292            0.0000000000
     15545      5182  TIP3      H1            -33.9976405324       20.1529051950        9.7793200322  W2        6292            0.0000000000
     15546      5182  TIP3      H2            -32.8991805324       21.0571151950        9.2619400322  W2        6292            0.0000000000
     15547      5183  TIP3      OH2           -29.5117105324       29.5201451950        7.4949800322  W2        6294            0.0000000000
     15548      5183  TIP3      H1            -30.2566105324       29.0126751950        7.1727700322  W2        6294            0.0000000000
     15549      5183  TIP3      H2            -29.6459905324       29.5689451950        8.4414600322  W2        6294            0.0000000000
     15550      5184  TIP3      OH2           -25.6140305324       22.3341351950        5.6942400322  W2        6296            0.0000000000
     15551      5184  TIP3      H1            -26.5526105324       22.4456951950        5.5431200322  W2        6296            0.0000000000
     15552      5184  TIP3      H2            -25.3168205324       23.1908251950        6.0008100322  W2        6296            0.0000000000
     15553      5185  TIP3      OH2           -24.8956805324       24.2014051950        7.3549800322  W2        6298            0.0000000000
     15554      5185  TIP3      H1            -24.0037805324       24.0639051950        7.6741000322  W2        6298            0.0000000000
     15555      5185  TIP3      H2            -24.8393205324       24.9920151950        6.8183300322  W2        6298            0.0000000000
     15556      5186  TIP3      OH2           -34.3868805324       28.8151451950       13.2647700322  W2        6299            0.0000000000
     15557      5186  TIP3      H1            -33.6421605324       28.8127151950       12.6634200322  W2        6299            0.0000000000
     15558      5186  TIP3      H2            -34.3092205324       27.9915251950       13.7462800322  W2        6299            0.0000000000
     15559      5187  TIP3      OH2           -27.3863005324       30.9785751950        6.5204400322  W2        6300            0.0000000000
     15560      5187  TIP3      H1            -27.6814605324       31.8053651950        6.9019200322  W2        6300            0.0000000000
     15561      5187  TIP3      H2            -28.0893005324       30.3592651950        6.7165800322  W2        6300            0.0000000000
     15562      5188  TIP3      OH2           -20.0108105324       24.4108151950        7.0496500322  W2        6304            0.0000000000
     15563      5188  TIP3      H1            -20.5651805324       24.0146151950        6.3774000322  W2        6304            0.0000000000
     15564      5188  TIP3      H2            -19.9104505324       25.3213351950        6.7719800322  W2        6304            0.0000000000
     15565      5189  TIP3      OH2           -21.7156405324       33.1968551950        7.5148600322  W2        6306            0.0000000000
     15566      5189  TIP3      H1            -22.0885305324       32.3712351950        7.8239200322  W2        6306            0.0000000000
     15567      5189  TIP3      H2            -21.4382905324       33.0137951950        6.6172000322  W2        6306            0.0000000000
     15568      5190  TIP3      OH2           -24.5552505324       28.0048051950       14.5360500322  W2        6307            0.0000000000
     15569      5190  TIP3      H1            -25.4835605324       27.7729951950       14.5089800322  W2        6307            0.0000000000
     15570      5190  TIP3      H2            -24.1041405324       27.2277851950       14.2059300322  W2        6307            0.0000000000
     15571      5191  TIP3      OH2           -32.0119405324       32.3329651950       10.6689200322  W2        6308            0.0000000000
     15572      5191  TIP3      H1            -31.4847205324       33.1064051950       10.4688000322  W2        6308            0.0000000000
     15573      5191  TIP3      H2            -32.8920905324       32.5578851950       10.3673200322  W2        6308            0.0000000000
     15574      5192  TIP3      OH2           -36.2571705324       27.1953751950        5.2561600322  W2        6309            0.0000000000
     15575      5192  TIP3      H1            -35.6411805324       27.8220951950        5.6356400322  W2        6309            0.0000000000
     15576      5192  TIP3      H2            -37.1189105324       27.5113551950        5.5278100322  W2        6309            0.0000000000
     15577      5193  TIP3      OH2           -30.5847105324       29.9959551950       10.2453500322  W2        6310            0.0000000000
     15578      5193  TIP3      H1            -30.8257105324       30.9213951950       10.2868800322  W2        6310            0.0000000000
     15579      5193  TIP3      H2            -31.3253505324       29.5370851950       10.6417400322  W2        6310            0.0000000000
     15580      5194  TIP3      OH2           -31.9016305324       35.0177151950        9.7905700322  W2        6312            0.0000000000
     15581      5194  TIP3      H1            -32.8515805324       35.1234551950        9.8419000322  W2        6312            0.0000000000
     15582      5194  TIP3      H2            -31.5498205324       35.8384551950       10.1353200322  W2        6312            0.0000000000
     15583      5195  TIP3      OH2           -24.3230805324       31.1734351950        5.3349200322  W2        6314            0.0000000000
     15584      5195  TIP3      H1            -23.9697705324       30.7934151950        6.1392700322  W2        6314            0.0000000000
     15585      5195  TIP3      H2            -25.2717305324       31.0799151950        5.4218500322  W2        6314            0.0000000000
     15586      5196  TIP3      OH2           -19.8196405324       35.6526851950        5.5359400322  W2        6316            0.0000000000
     15587      5196  TIP3      H1            -19.0758505324       36.2387351950        5.3961000322  W2        6316            0.0000000000
     15588      5196  TIP3      H2            -20.5138305324       36.2212651950        5.8691800322  W2        6316            0.0000000000
     15589      5197  TIP3      OH2           -23.4571505324       29.8456351950        7.5617100322  W2        6318            0.0000000000
     15590      5197  TIP3      H1            -23.7343905324       29.1175651950        8.1178200322  W2        6318            0.0000000000
     15591      5197  TIP3      H2            -22.5298505324       29.9648351950        7.7669700322  W2        6318            0.0000000000
     15592      5198  TIP3      OH2           -30.2323005324       32.2850451950        3.7819200322  W2        6320            0.0000000000
     15593      5198  TIP3      H1            -29.9933205324       31.5368551950        3.2348100322  W2        6320            0.0000000000
     15594      5198  TIP3      H2            -30.5011705324       31.8972151950        4.6147000322  W2        6320            0.0000000000
     15595      5199  TIP3      OH2           -31.2952405324       31.8554251950        6.2381800322  W2        6321            0.0000000000
     15596      5199  TIP3      H1            -31.1484405324       31.3354051950        7.0282700322  W2        6321            0.0000000000
     15597      5199  TIP3      H2            -31.2980705324       32.7621851950        6.5447700322  W2        6321            0.0000000000
     15598      5200  TIP3      OH2           -34.8421305324       29.1077551950        6.7487200322  W2        6322            0.0000000000
     15599      5200  TIP3      H1            -35.5282005324       29.4600051950        7.3156900322  W2        6322            0.0000000000
     15600      5200  TIP3      H2            -34.3193405324       29.8707151950        6.5021500322  W2        6322            0.0000000000
     15601      5201  TIP3      OH2           -26.2261305324       21.4223051950        8.1248500322  W2        6324            0.0000000000
     15602      5201  TIP3      H1            -26.0063005324       21.8938451950        7.3213900322  W2        6324            0.0000000000
     15603      5201  TIP3      H2            -25.6677305324       21.8165651950        8.7949100322  W2        6324            0.0000000000
     15604      5202  TIP3      OH2           -28.5575205324       33.5527851950        6.9876000322  W2        6325            0.0000000000
     15605      5202  TIP3      H1            -29.3739105324       34.0497551950        7.0400300322  W2        6325            0.0000000000
     15606      5202  TIP3      H2            -28.0278905324       34.0281351950        6.3474800322  W2        6325            0.0000000000
     15607      5203  TIP3      OH2           -29.0261405324       23.1501851950        8.9596900322  W2        6326            0.0000000000
     15608      5203  TIP3      H1            -28.2138805324       23.6545051950        9.0058600322  W2        6326            0.0000000000
     15609      5203  TIP3      H2            -29.2708405324       23.0051551950        9.8736500322  W2        6326            0.0000000000
     15610      5204  TIP3      OH2           -28.1424705324       20.2314851950        9.8978000322  W2        6328            0.0000000000
     15611      5204  TIP3      H1            -28.4891205324       20.8485451950       10.5422300322  W2        6328            0.0000000000
     15612      5204  TIP3      H2            -27.4837805324       20.7320551950        9.4163500322  W2        6328            0.0000000000
     15613      5205  TIP3      OH2           -31.2192105324       34.5965051950        6.9692900322  W2        6329            0.0000000000
     15614      5205  TIP3      H1            -31.0583405324       35.3962551950        6.4685500322  W2        6329            0.0000000000
     15615      5205  TIP3      H2            -31.4164305324       34.9031051950        7.8543500322  W2        6329            0.0000000000
     15616      5206  TIP3      OH2           -32.4847705324       21.2944251950        6.5850500322  W2        6330            0.0000000000
     15617      5206  TIP3      H1            -32.5682905324       22.1827351950        6.9316900322  W2        6330            0.0000000000
     15618      5206  TIP3      H2            -31.5947405324       21.0290951950        6.8167300322  W2        6330            0.0000000000
     15619      5207  TIP3      OH2           -23.6838205324       25.7935851950       13.0750500322  W2        6332            0.0000000000
     15620      5207  TIP3      H1            -24.4813805324       25.3786051950       12.7465500322  W2        6332            0.0000000000
     15621      5207  TIP3      H2            -23.2387105324       25.1029551950       13.5661000322  W2        6332            0.0000000000
     15622      5208  TIP3      OH2           -34.2262405324       31.7216451950        5.6455000322  W2        6333            0.0000000000
     15623      5208  TIP3      H1            -33.6340905324       32.4211251950        5.9217400322  W2        6333            0.0000000000
     15624      5208  TIP3      H2            -33.7669405324       31.2885951950        4.9259600322  W2        6333            0.0000000000
     15625      5209  TIP3      OH2           -35.9103205324       24.3859451950        4.7614400322  W2        6334            0.0000000000
     15626      5209  TIP3      H1            -35.9550605324       25.3252551950        4.9401400322  W2        6334            0.0000000000
     15627      5209  TIP3      H2            -36.7980005324       24.1504351950        4.4916500322  W2        6334            0.0000000000
     15628      5210  TIP3      OH2           -22.5973605324       35.0498351950       14.6974000322  W2        6335            0.0000000000
     15629      5210  TIP3      H1            -22.7529305324       35.7282751950       14.0403300322  W2        6335            0.0000000000
     15630      5210  TIP3      H2            -21.6647205324       35.1217651950       14.9004600322  W2        6335            0.0000000000
     15631      5211  TIP3      OH2           -35.1021205324       19.1676051950       13.4345400322  W2        6336            0.0000000000
     15632      5211  TIP3      H1            -35.3311405324       19.2268551950       12.5070400322  W2        6336            0.0000000000
     15633      5211  TIP3      H2            -35.5447805324       18.3761551950       13.7409500322  W2        6336            0.0000000000
     15634      5212  TIP3      OH2           -36.1717905324       33.1083151950        9.5951200322  W2        6337            0.0000000000
     15635      5212  TIP3      H1            -37.0039305324       33.5805851950        9.6222600322  W2        6337            0.0000000000
     15636      5212  TIP3      H2            -35.6259605324       33.6180751950        8.9964300322  W2        6337            0.0000000000
     15637      5213  TIP3      OH2           -28.1941205324       34.1481851950        3.9205200322  W2        6340            0.0000000000
     15638      5213  TIP3      H1            -28.8380205324       33.5170451950        4.2418900322  W2        6340            0.0000000000
     15639      5213  TIP3      H2            -27.4322905324       33.6169851950        3.6888700322  W2        6340            0.0000000000
     15640      5214  TIP3      OH2           -23.5898305324       33.9651751950        4.1543200322  W2        6342            0.0000000000
     15641      5214  TIP3      H1            -23.3067905324       33.1706951950        4.6070100322  W2        6342            0.0000000000
     15642      5214  TIP3      H2            -22.8500405324       34.1982751950        3.5934300322  W2        6342            0.0000000000
     15643      5215  TIP3      OH2           -32.6351005324       29.8746651950        4.0118100322  W2        6344            0.0000000000
     15644      5215  TIP3      H1            -32.5706905324       29.0806251950        4.5424500322  W2        6344            0.0000000000
     15645      5215  TIP3      H2            -31.9821805324       29.7559451950        3.3220100322  W2        6344            0.0000000000
     15646      5216  TIP3      OH2           -27.2827605324       30.9218351950        3.7476100322  W2        6346            0.0000000000
     15647      5216  TIP3      H1            -27.5513505324       31.1020451950        4.6485000322  W2        6346            0.0000000000
     15648      5216  TIP3      H2            -27.4892005324       29.9964551950        3.6161900322  W2        6346            0.0000000000
     15649      5217  TIP3      OH2           -31.4857205324       27.8472851950        6.3176100322  W2        6349            0.0000000000
     15650      5217  TIP3      H1            -31.9455205324       27.3631151950        7.0034600322  W2        6349            0.0000000000
     15651      5217  TIP3      H2            -31.2308505324       27.1788251950        5.6816600322  W2        6349            0.0000000000
     15652      5218  TIP3      OH2           -30.4146805324       26.0904651950        4.5799300322  W2        6351            0.0000000000
     15653      5218  TIP3      H1            -30.5951805324       25.9355851950        3.6527600322  W2        6351            0.0000000000
     15654      5218  TIP3      H2            -29.4646305324       26.1983351950        4.6247200322  W2        6351            0.0000000000
     15655      5219  TIP3      OH2           -21.0248505324       28.4448851950        4.0257400322  W2        6353            0.0000000000
     15656      5219  TIP3      H1            -21.2983705324       28.0204351950        3.2125700322  W2        6353            0.0000000000
     15657      5219  TIP3      H2            -20.9854405324       29.3763351950        3.8087800322  W2        6353            0.0000000000
     15658      5220  TIP3      OH2           -30.5175105324       36.7808351950        5.5812900322  W2        6367            0.0000000000
     15659      5220  TIP3      H1            -29.5844405324       36.9387051950        5.7251300322  W2        6367            0.0000000000
     15660      5220  TIP3      H2            -30.7816305324       37.4561351950        4.9564400322  W2        6367            0.0000000000
     15661      5221  TIP3      OH2           -36.9490205324       31.4172151950        5.0641000322  W2        6368            0.0000000000
     15662      5221  TIP3      H1            -36.0351005324       31.4961051950        5.3374900322  W2        6368            0.0000000000
     15663      5221  TIP3      H2            -36.9417105324       30.7301751950        4.3976600322  W2        6368            0.0000000000
     15664      5222  TIP3      OH2           -38.2999605324       36.8100651950       10.1414900322  W2        6369            0.0000000000
     15665      5222  TIP3      H1            -38.9472505324       36.3482351950        9.6086100322  W2        6369            0.0000000000
     15666      5222  TIP3      H2            -37.9455005324       36.1383951950       10.7241100322  W2        6369            0.0000000000
     15667      5223  TIP3      OH2           -37.4300405324       34.8907651950       11.9461100322  W2        6370            0.0000000000
     15668      5223  TIP3      H1            -37.7643605324       34.0104951950       12.1181300322  W2        6370            0.0000000000
     15669      5223  TIP3      H2            -37.2078005324       35.2362651950       12.8106700322  W2        6370            0.0000000000
     15670      5224  TIP3      OH2           -20.5665705324       29.3136951950        8.0007800322  W2        6374            0.0000000000
     15671      5224  TIP3      H1            -19.7164305324       29.7347851950        8.1279400322  W2        6374            0.0000000000
     15672      5224  TIP3      H2            -20.5610605324       28.5737051950        8.6079200322  W2        6374            0.0000000000
     15673      5225  TIP3      OH2           -20.1720105324       27.3674351950        9.8243500322  W2        6375            0.0000000000
     15674      5225  TIP3      H1            -20.8985505324       26.8876951950       10.2221100322  W2        6375            0.0000000000
     15675      5225  TIP3      H2            -19.5906805324       27.5729051950       10.5565100322  W2        6375            0.0000000000
     15676      5226  TIP3      OH2           -20.4128905324       30.1521851950       14.7721100322  W2        6376            0.0000000000
     15677      5226  TIP3      H1            -19.5794705324       29.7741851950       14.4914700322  W2        6376            0.0000000000
     15678      5226  TIP3      H2            -20.3008605324       31.0953051950       14.6530200322  W2        6376            0.0000000000
     15679      5227  TIP3      OH2           -19.9037005324       27.2682851950        6.2154800322  W2        6378            0.0000000000
     15680      5227  TIP3      H1            -20.4255905324       27.6246951950        5.4965700322  W2        6378            0.0000000000
     15681      5227  TIP3      H2            -19.9367805324       27.9430651950        6.8935700322  W2        6378            0.0000000000
     15682      5228  TIP3      OH2           -21.5548005324       24.5078451950        4.7661900322  W2        6379            0.0000000000
     15683      5228  TIP3      H1            -21.4583605324       25.1745451950        4.0861600322  W2        6379            0.0000000000
     15684      5228  TIP3      H2            -21.6948405324       23.6924751950        4.2847400322  W2        6379            0.0000000000
     15685      5229  TIP3      OH2           -22.3853305324       25.8880851950       10.3872200322  W2        6380            0.0000000000
     15686      5229  TIP3      H1            -22.5354505324       24.9429451950       10.3670000322  W2        6380            0.0000000000
     15687      5229  TIP3      H2            -22.7388805324       26.1692251950       11.2311300322  W2        6380            0.0000000000
     15688      5230  TIP3      OH2           -37.3500905324       27.9663051950       14.3976000322  W2        6381            0.0000000000
     15689      5230  TIP3      H1            -37.1658005324       27.8844751950       13.4618900322  W2        6381            0.0000000000
     15690      5230  TIP3      H2            -36.5008005324       27.8420051950       14.8212400322  W2        6381            0.0000000000
     15691      5231  TIP3      OH2           -22.3074205324       21.9158251950        3.8837400322  W2        6384            0.0000000000
     15692      5231  TIP3      H1            -21.6968405324       21.5445051950        4.5205600322  W2        6384            0.0000000000
     15693      5231  TIP3      H2            -23.1442705324       21.4945151950        4.0797400322  W2        6384            0.0000000000
     15694      5232  TIP3      OH2           -22.6748505324       23.4706651950        8.8497300322  W2        6385            0.0000000000
     15695      5232  TIP3      H1            -22.3951405324       22.5637051950        8.9739000322  W2        6385            0.0000000000
     15696      5232  TIP3      H2            -21.9156805324       23.9048151950        8.4606500322  W2        6385            0.0000000000
     15697      5233  TIP3      OH2           -22.0630205324       24.0524051950       14.2856200322  W2        6386            0.0000000000
     15698      5233  TIP3      H1            -21.1302205324       24.2643951950       14.2512200322  W2        6386            0.0000000000
     15699      5233  TIP3      H2            -22.2982705324       24.1536151950       15.2079200322  W2        6386            0.0000000000
     15700      5234  TIP3      OH2           -22.0613705324       20.7335951950        8.8979300322  W2        6390            0.0000000000
     15701      5234  TIP3      H1            -21.8788705324       20.2847451950        9.7234300322  W2        6390            0.0000000000
     15702      5234  TIP3      H2            -22.6610805324       20.1490351950        8.4343900322  W2        6390            0.0000000000
     15703      5235  TIP3      OH2           -36.5313605324       21.5489651950       13.4297700322  W2        6391            0.0000000000
     15704      5235  TIP3      H1            -36.0862005324       20.7572151950       13.7317400322  W2        6391            0.0000000000
     15705      5235  TIP3      H2            -36.0650605324       22.2654851950       13.8603300322  W2        6391            0.0000000000
     15706      5236  TIP3      OH2           -38.2273305324       24.5482651950       14.4987900322  W2        6392            0.0000000000
     15707      5236  TIP3      H1            -37.7353505324       24.3273151950       13.7079900322  W2        6392            0.0000000000
     15708      5236  TIP3      H2            -37.8652405324       25.3886051950       14.7797400322  W2        6392            0.0000000000
     15709      5237  TIP3      OH2           -20.1947505324       20.8014051950        5.4259600322  W2        6394            0.0000000000
     15710      5237  TIP3      H1            -19.7824905324       20.0799751950        4.9507600322  W2        6394            0.0000000000
     15711      5237  TIP3      H2            -19.5131005324       21.4708651950        5.4843900322  W2        6394            0.0000000000
     15712      5238  TIP3      OH2           -37.9136805324       20.8061751950        8.5530300322  W2        6395            0.0000000000
     15713      5238  TIP3      H1            -38.8388405324       21.0148351950        8.4235800322  W2        6395            0.0000000000
     15714      5238  TIP3      H2            -37.4596905324       21.2902551950        7.8632600322  W2        6395            0.0000000000
     15715      5239  TIP3      OH2           -23.1429605324       35.7903451950       10.4987700322  W2        6396            0.0000000000
     15716      5239  TIP3      H1            -22.4906705324       35.4425551950        9.8906800322  W2        6396            0.0000000000
     15717      5239  TIP3      H2            -22.6325805324       36.2786651950       11.1447400322  W2        6396            0.0000000000
     15718      5240  TIP3      OH2           -35.9874405324       35.5732451950       14.2579700322  W2        6408            0.0000000000
     15719      5240  TIP3      H1            -36.0058405324       35.1477551950       15.1152000322  W2        6408            0.0000000000
     15720      5240  TIP3      H2            -35.1826505324       35.2547451950       13.8491900322  W2        6408            0.0000000000
     15721      5241  TIP3      OH2           -33.8461305324       34.2831151950       12.9129600322  W2        6409            0.0000000000
     15722      5241  TIP3      H1            -34.0650605324       33.3668551950       13.0825600322  W2        6409            0.0000000000
     15723      5241  TIP3      H2            -33.0219105324       34.4231551950       13.3791000322  W2        6409            0.0000000000
     15724      5242  TIP3      OH2           -31.3088805324       34.7530451950       13.7617600322  W2        6410            0.0000000000
     15725      5242  TIP3      H1            -31.0963105324       33.8649451950       13.4748500322  W2        6410            0.0000000000
     15726      5242  TIP3      H2            -31.2443705324       34.7188151950       14.7161600322  W2        6410            0.0000000000
     15727      5243  TIP3      OH2           -27.8005105324       20.4171051950       12.9060900322  W2        6411            0.0000000000
     15728      5243  TIP3      H1            -28.4748305324       19.7876651950       13.1616700322  W2        6411            0.0000000000
     15729      5243  TIP3      H2            -27.2365905324       19.9329951950       12.3028800322  W2        6411            0.0000000000
     15730      5244  TIP3      OH2           -22.6577905324       18.5245051950       13.0188000322  W2        6412            0.0000000000
     15731      5244  TIP3      H1            -22.0540305324       19.0720451950       12.5169000322  W2        6412            0.0000000000
     15732      5244  TIP3      H2            -23.5275905324       18.8435451950       12.7782100322  W2        6412            0.0000000000
     15733      5245  TIP3      OH2           -20.9307505324       19.6633751950       11.3518900322  W2        6413            0.0000000000
     15734      5245  TIP3      H1            -20.3190005324       19.1489451950       10.8252500322  W2        6413            0.0000000000
     15735      5245  TIP3      H2            -20.5484105324       20.5405851950       11.3753300322  W2        6413            0.0000000000
     15736      5246  TIP3      OH2           -35.4737605324       19.0511351950       10.7280800322  W2        6414            0.0000000000
     15737      5246  TIP3      H1            -36.2507805324       18.8166251950       10.2206700322  W2        6414            0.0000000000
     15738      5246  TIP3      H2            -34.9434005324       18.2543451950       10.7368800322  W2        6414            0.0000000000
     15739      5247  TIP3      OH2           -36.6374205324       18.8489451950        6.5316900322  W2        6415            0.0000000000
     15740      5247  TIP3      H1            -36.1983505324       19.4599951950        5.9400400322  W2        6415            0.0000000000
     15741      5247  TIP3      H2            -37.2711805324       19.3873551950        7.0056900322  W2        6415            0.0000000000
     15742      5248  TIP3      OH2           -30.8945005324       18.9778451950       10.5413900322  W2        6416            0.0000000000
     15743      5248  TIP3      H1            -30.0201605324       19.3662751950       10.5118200322  W2        6416            0.0000000000
     15744      5248  TIP3      H2            -31.0304205324       18.7626251950       11.4641100322  W2        6416            0.0000000000
     15745      5249  TIP3      OH2           -25.3376605324       19.0078251950       12.1905600322  W2        6417            0.0000000000
     15746      5249  TIP3      H1            -25.2615005324       19.1029851950       11.2411600322  W2        6417            0.0000000000
     15747      5249  TIP3      H2            -25.6127405324       18.1001151950       12.3194700322  W2        6417            0.0000000000
     15748      5250  TIP3      OH2           -23.9844005324       19.0336051950        7.8830600322  W2        6418            0.0000000000
     15749      5250  TIP3      H1            -24.6872905324       19.6485251950        7.6732000322  W2        6418            0.0000000000
     15750      5250  TIP3      H2            -24.4292605324       18.1962751950        8.0141500322  W2        6418            0.0000000000
     15751      5251  TIP3      OH2           -36.7364705324       34.7971651950        7.4292000322  W2        6419            0.0000000000
     15752      5251  TIP3      H1            -37.4214805324       34.7590551950        6.7617100322  W2        6419            0.0000000000
     15753      5251  TIP3      H2            -36.7327505324       35.7099251950        7.7174100322  W2        6419            0.0000000000
     15754      5252  TIP3      OH2           -34.7765105324       20.7650951950        4.9741000322  W2        6420            0.0000000000
     15755      5252  TIP3      H1            -34.2851705324       20.1353351950        4.4466500322  W2        6420            0.0000000000
     15756      5252  TIP3      H2            -34.1528805324       21.0610351950        5.6372200322  W2        6420            0.0000000000
     15757      5253  TIP3      OH2           -29.7505005324       21.0582451950        7.4311500322  W2        6421            0.0000000000
     15758      5253  TIP3      H1            -29.5723705324       20.4115651950        8.1140100322  W2        6421            0.0000000000
     15759      5253  TIP3      H2            -29.8038805324       21.8920151950        7.8982600322  W2        6421            0.0000000000
     15760      5254  TIP3      OH2           -27.8721205324       36.0066551950        5.8268200322  W2        6422            0.0000000000
     15761      5254  TIP3      H1            -27.0061005324       36.3733951950        5.6486400322  W2        6422            0.0000000000
     15762      5254  TIP3      H2            -28.1188405324       35.5674551950        5.0129000322  W2        6422            0.0000000000
     15763      5255  TIP3      OH2           -21.1631605324       35.5696851950        8.5059300322  W2        6423            0.0000000000
     15764      5255  TIP3      H1            -21.3574505324       34.8218951950        7.9408900322  W2        6423            0.0000000000
     15765      5255  TIP3      H2            -21.2021505324       36.3276951950        7.9227200322  W2        6423            0.0000000000
     15766      5256  TIP3      OH2           -34.9183505324       35.7172451950        4.4544100322  W2        6426            0.0000000000
     15767      5256  TIP3      H1            -35.1858905324       36.0035351950        5.3277200322  W2        6426            0.0000000000
     15768      5256  TIP3      H2            -34.1470905324       35.1711651950        4.6066600322  W2        6426            0.0000000000
     15769      5257  TIP3      OH2            -7.5395005324       28.2073651950       10.6868300322  W2        6429            0.0000000000
     15770      5257  TIP3      H1             -7.4503905324       29.1511851950       10.5545400322  W2        6429            0.0000000000
     15771      5257  TIP3      H2             -8.1777405324       27.9320051950       10.0287700322  W2        6429            0.0000000000
     15772      5258  TIP3      OH2            -8.6063705324       27.4624351950       14.1056500322  W2        6430            0.0000000000
     15773      5258  TIP3      H1             -8.6446205324       26.8160651950       14.8106100322  W2        6430            0.0000000000
     15774      5258  TIP3      H2             -8.9287205324       26.9958751950       13.3345200322  W2        6430            0.0000000000
     15775      5259  TIP3      OH2            -4.9003505324       30.4014751950       12.4071600322  W2        6432            0.0000000000
     15776      5259  TIP3      H1             -5.3410805324       29.6810751950       12.8577200322  W2        6432            0.0000000000
     15777      5259  TIP3      H2             -4.9133805324       31.1221951950       13.0369300322  W2        6432            0.0000000000
     15778      5260  TIP3      OH2           -15.3145605324       31.5265351950       14.2335500322  W2        6433            0.0000000000
     15779      5260  TIP3      H1            -15.6840405324       30.7245851950       13.8639800322  W2        6433            0.0000000000
     15780      5260  TIP3      H2            -14.3734505324       31.3580251950       14.2798900322  W2        6433            0.0000000000
     15781      5261  TIP3      OH2           -18.7045105324       25.1867951950        9.6264300322  W2        6434            0.0000000000
     15782      5261  TIP3      H1            -19.1521705324       26.0326651950        9.6080800322  W2        6434            0.0000000000
     15783      5261  TIP3      H2            -19.2653905324       24.6072151950        9.1109400322  W2        6434            0.0000000000
     15784      5262  TIP3      OH2           -17.9939005324       27.3487551950       11.7522300322  W2        6435            0.0000000000
     15785      5262  TIP3      H1            -17.7805505324       26.5789151950       12.2795300322  W2        6435            0.0000000000
     15786      5262  TIP3      H2            -17.2561405324       27.4384251950       11.1489900322  W2        6435            0.0000000000
     15787      5263  TIP3      OH2            -7.7888005324       35.5056451950       12.6192000322  W2        6436            0.0000000000
     15788      5263  TIP3      H1             -7.1691605324       34.8291151950       12.3461200322  W2        6436            0.0000000000
     15789      5263  TIP3      H2             -7.9970605324       35.2877251950       13.5276900322  W2        6436            0.0000000000
     15790      5264  TIP3      OH2           -10.2169305324       29.8945751950       14.5117500322  W2        6437            0.0000000000
     15791      5264  TIP3      H1             -9.9131405324       29.2087151950       13.9171600322  W2        6437            0.0000000000
     15792      5264  TIP3      H2             -9.4955305324       30.0134451950       15.1295500322  W2        6437            0.0000000000
     15793      5265  TIP3      OH2            -7.0762305324       24.2888151950       14.8392300322  W2        6439            0.0000000000
     15794      5265  TIP3      H1             -6.9336405324       23.3425151950       14.8593900322  W2        6439            0.0000000000
     15795      5265  TIP3      H2             -7.1823305324       24.4957951950       13.9107200322  W2        6439            0.0000000000
     15796      5266  TIP3      OH2           -13.9214005324       22.3904551950       12.1117100322  W2        6440            0.0000000000
     15797      5266  TIP3      H1            -13.8782905324       23.2503051950       11.6933400322  W2        6440            0.0000000000
     15798      5266  TIP3      H2            -14.3789905324       21.8379251950       11.4780300322  W2        6440            0.0000000000
     15799      5267  TIP3      OH2            -6.1991305324       22.5210151950       10.5125400322  W2        6441            0.0000000000
     15800      5267  TIP3      H1             -5.5527005324       22.1923351950       11.1373000322  W2        6441            0.0000000000
     15801      5267  TIP3      H2             -5.6891905324       23.0389151950        9.8896800322  W2        6441            0.0000000000
     15802      5268  TIP3      OH2           -17.3012505324       24.7870351950       12.8738500322  W2        6442            0.0000000000
     15803      5268  TIP3      H1            -16.6475905324       24.2372051950       13.3058600322  W2        6442            0.0000000000
     15804      5268  TIP3      H2            -17.2773205324       24.5129351950       11.9570500322  W2        6442            0.0000000000
     15805      5269  TIP3      OH2           -12.1448005324       26.3371651950       12.0890000322  W2        6443            0.0000000000
     15806      5269  TIP3      H1            -11.5287005324       25.8107051950       12.5984000322  W2        6443            0.0000000000
     15807      5269  TIP3      H2            -12.7309205324       25.6970351950       11.6853600322  W2        6443            0.0000000000
     15808      5270  TIP3      OH2            -7.7422305324       30.8084051950        9.7297000322  W2        6446            0.0000000000
     15809      5270  TIP3      H1             -8.0377205324       30.4856351950        8.8783900322  W2        6446            0.0000000000
     15810      5270  TIP3      H2             -8.0664505324       31.7080751950        9.7709600322  W2        6446            0.0000000000
     15811      5271  TIP3      OH2            -4.4352905324       21.8119451950       12.4931300322  W2        6448            0.0000000000
     15812      5271  TIP3      H1             -4.6504905324       21.0462851950       13.0257300322  W2        6448            0.0000000000
     15813      5271  TIP3      H2             -3.7795505324       22.2844051950       13.0059800322  W2        6448            0.0000000000
     15814      5272  TIP3      OH2           -15.5174805324       23.2004751950       14.1380100322  W2        6449            0.0000000000
     15815      5272  TIP3      H1            -14.9038505324       23.8332351950       14.5112500322  W2        6449            0.0000000000
     15816      5272  TIP3      H2            -15.0054105324       22.7279751950       13.4817000322  W2        6449            0.0000000000
     15817      5273  TIP3      OH2           -18.0135505324       30.6189551950        8.0422400322  W2        6451            0.0000000000
     15818      5273  TIP3      H1            -18.2854605324       30.8480551950        7.1535300322  W2        6451            0.0000000000
     15819      5273  TIP3      H2            -17.9679805324       31.4568351950        8.5027700322  W2        6451            0.0000000000
     15820      5274  TIP3      OH2            -4.3885805324       32.2405451950       14.7550900322  W2        6452            0.0000000000
     15821      5274  TIP3      H1             -5.3302105324       32.2989351950       14.9167800322  W2        6452            0.0000000000
     15822      5274  TIP3      H2             -4.1119705324       33.1465951950       14.6180600322  W2        6452            0.0000000000
     15823      5275  TIP3      OH2           -11.0847405324       18.6138051950       13.6382800322  W2        6454            0.0000000000
     15824      5275  TIP3      H1            -11.2023205324       17.6654051950       13.5841100322  W2        6454            0.0000000000
     15825      5275  TIP3      H2            -11.9397305324       18.9464151950       13.9113900322  W2        6454            0.0000000000
     15826      5276  TIP3      OH2            -6.1364605324       34.0218951950       11.3802500322  W2        6455            0.0000000000
     15827      5276  TIP3      H1             -5.7112305324       33.3146851950       10.8952100322  W2        6455            0.0000000000
     15828      5276  TIP3      H2             -5.8194605324       34.8231651950       10.9634700322  W2        6455            0.0000000000
     15829      5277  TIP3      OH2            -4.9768105324       31.9227451950        9.8889100322  W2        6456            0.0000000000
     15830      5277  TIP3      H1             -5.2343305324       31.2327551950        9.2775000322  W2        6456            0.0000000000
     15831      5277  TIP3      H2             -4.9057305324       31.4798651950       10.7345000322  W2        6456            0.0000000000
     15832      5278  TIP3      OH2            -8.8182505324       27.4513651950        8.1388600322  W2        6458            0.0000000000
     15833      5278  TIP3      H1             -9.5297005324       27.9863351950        7.7869100322  W2        6458            0.0000000000
     15834      5278  TIP3      H2             -8.1272905324       27.5065751950        7.4787500322  W2        6458            0.0000000000
     15835      5279  TIP3      OH2            -8.7643305324       25.9087951950        5.1773600322  W2        6459            0.0000000000
     15836      5279  TIP3      H1             -8.0633405324       25.9314851950        5.8287600322  W2        6459            0.0000000000
     15837      5279  TIP3      H2             -8.4620405324       25.2807651950        4.5212900322  W2        6459            0.0000000000
     15838      5280  TIP3      OH2            -5.4124805324       27.6606951950        9.0904500322  W2        6461            0.0000000000
     15839      5280  TIP3      H1             -6.1443805324       27.8890651950        9.6635100322  W2        6461            0.0000000000
     15840      5280  TIP3      H2             -4.9652605324       26.9469651950        9.5452000322  W2        6461            0.0000000000
     15841      5281  TIP3      OH2           -13.7671105324       28.2913151950       10.9729500322  W2        6463            0.0000000000
     15842      5281  TIP3      H1            -14.0975905324       27.9206551950       10.1546500322  W2        6463            0.0000000000
     15843      5281  TIP3      H2            -13.1787005324       27.6207151950       11.3197800322  W2        6463            0.0000000000
     15844      5282  TIP3      OH2           -12.4003605324       31.7193751950       13.6541700322  W2        6464            0.0000000000
     15845      5282  TIP3      H1            -12.4952305324       31.1406851950       12.8976300322  W2        6464            0.0000000000
     15846      5282  TIP3      H2            -11.6710005324       31.3479451950       14.1504500322  W2        6464            0.0000000000
     15847      5283  TIP3      OH2           -13.4005605324       27.0598751950       14.6064500322  W2        6465            0.0000000000
     15848      5283  TIP3      H1            -12.8353105324       27.1812951950       13.8435700322  W2        6465            0.0000000000
     15849      5283  TIP3      H2            -13.0816705324       27.6973751950       15.2453000322  W2        6465            0.0000000000
     15850      5284  TIP3      OH2            -6.5415305324       26.8229851950        6.7755700322  W2        6468            0.0000000000
     15851      5284  TIP3      H1             -5.9619805324       26.9730151950        7.5224600322  W2        6468            0.0000000000
     15852      5284  TIP3      H2             -6.1275305324       27.2937251950        6.0522100322  W2        6468            0.0000000000
     15853      5285  TIP3      OH2            -8.8150405324       33.5598351950       10.2108800322  W2        6470            0.0000000000
     15854      5285  TIP3      H1             -8.3412805324       33.8554651950       10.9883000322  W2        6470            0.0000000000
     15855      5285  TIP3      H2             -9.3781105324       34.2979951950        9.9778400322  W2        6470            0.0000000000
     15856      5286  TIP3      OH2            -2.8426905324       18.5730251950        6.5885400322  W2        6472            0.0000000000
     15857      5286  TIP3      H1             -3.7426205324       18.7119251950        6.8836000322  W2        6472            0.0000000000
     15858      5286  TIP3      H2             -2.5908505324       19.4044851950        6.1867100322  W2        6472            0.0000000000
     15859      5287  TIP3      OH2           -14.7768405324       27.3607451950        8.5622300322  W2        6473            0.0000000000
     15860      5287  TIP3      H1            -15.0687105324       28.1289151950        8.0713600322  W2        6473            0.0000000000
     15861      5287  TIP3      H2            -15.4513205324       26.7013651950        8.3993700322  W2        6473            0.0000000000
     15862      5288  TIP3      OH2            -1.6535505324       32.9392651950        4.9649300322  W2        6474            0.0000000000
     15863      5288  TIP3      H1             -1.5802005324       33.8782851950        5.1354600322  W2        6474            0.0000000000
     15864      5288  TIP3      H2             -0.7480405324       32.6341251950        4.9086600322  W2        6474            0.0000000000
     15865      5289  TIP3      OH2           -18.9335605324       32.5040451950       14.2612300322  W2        6476            0.0000000000
     15866      5289  TIP3      H1            -17.9875005324       32.3597451950       14.2421800322  W2        6476            0.0000000000
     15867      5289  TIP3      H2            -19.0459305324       33.2883251950       14.7983500322  W2        6476            0.0000000000
     15868      5290  TIP3      OH2            -9.3427305324       36.5163051950        8.6258000322  W2        6479            0.0000000000
     15869      5290  TIP3      H1             -9.4181305324       36.3950251950        7.6793200322  W2        6479            0.0000000000
     15870      5290  TIP3      H2             -9.3098605324       37.4655751950        8.7442600322  W2        6479            0.0000000000
     15871      5291  TIP3      OH2           -15.6893505324       35.3050051950       10.4067000322  W2        6480            0.0000000000
     15872      5291  TIP3      H1            -15.5373105324       34.9570451950       11.2853500322  W2        6480            0.0000000000
     15873      5291  TIP3      H2            -16.5403105324       34.9487351950       10.1514200322  W2        6480            0.0000000000
     15874      5292  TIP3      OH2            -6.2411305324       35.6703251950        5.6280400322  W2        6481            0.0000000000
     15875      5292  TIP3      H1             -5.8662905324       34.9259351950        5.1573000322  W2        6481            0.0000000000
     15876      5292  TIP3      H2             -6.2367605324       35.4003851950        6.5463700322  W2        6481            0.0000000000
     15877      5293  TIP3      OH2            -6.5723205324       35.5960351950        8.3772600322  W2        6482            0.0000000000
     15878      5293  TIP3      H1             -7.5073405324       35.6962251950        8.5559600322  W2        6482            0.0000000000
     15879      5293  TIP3      H2             -6.2921305324       34.8866351950        8.9555800322  W2        6482            0.0000000000
     15880      5294  TIP3      OH2           -13.8159805324       19.5172551950       14.4159100322  W2        6485            0.0000000000
     15881      5294  TIP3      H1            -14.6776105324       19.4300751950       14.0082000322  W2        6485            0.0000000000
     15882      5294  TIP3      H2            -13.8384105324       20.3732651950       14.8436700322  W2        6485            0.0000000000
     15883      5295  TIP3      OH2            -5.0642205324       27.8558151950        4.4053600322  W2        6488            0.0000000000
     15884      5295  TIP3      H1             -5.0221405324       27.6332051950        3.4753600322  W2        6488            0.0000000000
     15885      5295  TIP3      H2             -4.2150105324       28.2545251950        4.5953500322  W2        6488            0.0000000000
     15886      5296  TIP3      OH2            -9.4914705324       21.7316351950        5.0756900322  W2        6489            0.0000000000
     15887      5296  TIP3      H1             -9.7449905324       21.7507951950        5.9985000322  W2        6489            0.0000000000
     15888      5296  TIP3      H2             -9.7482605324       20.8601751950        4.7743100322  W2        6489            0.0000000000
     15889      5297  TIP3      OH2           -13.7280605324       24.7037151950       10.4229300322  W2        6491            0.0000000000
     15890      5297  TIP3      H1            -14.6207705324       24.3633251950       10.3643100322  W2        6491            0.0000000000
     15891      5297  TIP3      H2            -13.2774005324       24.3268051950        9.6672500322  W2        6491            0.0000000000
     15892      5298  TIP3      OH2            -8.1925105324       25.1197451950        9.2400100322  W2        6492            0.0000000000
     15893      5298  TIP3      H1             -8.6014805324       25.9346051950        8.9484900322  W2        6492            0.0000000000
     15894      5298  TIP3      H2             -7.4718905324       24.9797551950        8.6257200322  W2        6492            0.0000000000
     15895      5299  TIP3      OH2            -7.1877405324       24.5657851950       12.0539800322  W2        6494            0.0000000000
     15896      5299  TIP3      H1             -7.3832905324       25.1714651950       11.3390400322  W2        6494            0.0000000000
     15897      5299  TIP3      H2             -7.0064805324       23.7323051950       11.6196100322  W2        6494            0.0000000000
     15898      5300  TIP3      OH2           -12.6091805324       22.1772851950        4.1767300322  W2        6496            0.0000000000
     15899      5300  TIP3      H1            -13.0401105324       21.7322951950        4.9064700322  W2        6496            0.0000000000
     15900      5300  TIP3      H2            -13.3273105324       22.5489151950        3.6644800322  W2        6496            0.0000000000
     15901      5301  TIP3      OH2           -19.3668405324       21.9192351950       11.2286000322  W2        6497            0.0000000000
     15902      5301  TIP3      H1            -18.7360705324       21.8904451950       11.9479900322  W2        6497            0.0000000000
     15903      5301  TIP3      H2            -18.9174105324       21.4941051950       10.4981900322  W2        6497            0.0000000000
     15904      5302  TIP3      OH2           -18.0926305324       22.6654351950        6.6526400322  W2        6498            0.0000000000
     15905      5302  TIP3      H1            -17.6184605324       23.2564251950        6.0677300322  W2        6498            0.0000000000
     15906      5302  TIP3      H2            -18.8099905324       23.1957251950        6.9996500322  W2        6498            0.0000000000
     15907      5303  TIP3      OH2           -11.1465305324       22.1314651950       11.5093400322  W2        6500            0.0000000000
     15908      5303  TIP3      H1            -12.0574205324       22.1881451950       11.7979400322  W2        6500            0.0000000000
     15909      5303  TIP3      H2            -10.6412405324       22.0710151950       12.3200600322  W2        6500            0.0000000000
     15910      5304  TIP3      OH2           -16.3181905324       23.7600951950       10.3361000322  W2        6501            0.0000000000
     15911      5304  TIP3      H1            -17.2073905324       23.8596451950        9.9960600322  W2        6501            0.0000000000
     15912      5304  TIP3      H2            -16.0217005324       22.9183951950        9.9898900322  W2        6501            0.0000000000
     15913      5305  TIP3      OH2           -12.6650105324       23.7603551950        7.9925600322  W2        6502            0.0000000000
     15914      5305  TIP3      H1            -11.7334605324       23.8893551950        8.1708700322  W2        6502            0.0000000000
     15915      5305  TIP3      H2            -12.8799805324       24.4297851950        7.3430300322  W2        6502            0.0000000000
     15916      5306  TIP3      OH2            -6.7413405324       21.3660951950       14.7735200322  W2        6503            0.0000000000
     15917      5306  TIP3      H1             -7.4181805324       21.4974051950       15.4374900322  W2        6503            0.0000000000
     15918      5306  TIP3      H2             -7.2268505324       21.2110451950       13.9632900322  W2        6503            0.0000000000
     15919      5307  TIP3      OH2           -13.9909905324       24.9545751950        5.5591700322  W2        6504            0.0000000000
     15920      5307  TIP3      H1            -14.5334805324       24.5749551950        4.8679300322  W2        6504            0.0000000000
     15921      5307  TIP3      H2            -13.1575005324       25.1490451950        5.1305800322  W2        6504            0.0000000000
     15922      5308  TIP3      OH2            -9.8265605324       24.9187651950       13.3963000322  W2        6507            0.0000000000
     15923      5308  TIP3      H1             -9.2622205324       24.3724251950       12.8492600322  W2        6507            0.0000000000
     15924      5308  TIP3      H2             -9.9742205324       24.3969551950       14.1850600322  W2        6507            0.0000000000
     15925      5309  TIP3      OH2           -14.8245905324       21.0553751950        9.8147800322  W2        6508            0.0000000000
     15926      5309  TIP3      H1            -15.1416405324       20.1529051950        9.7793200322  W2        6508            0.0000000000
     15927      5309  TIP3      H2            -14.0431805324       21.0571151950        9.2619400322  W2        6508            0.0000000000
     15928      5310  TIP3      OH2           -10.6557105324       29.5201451950        7.4949800322  W2        6510            0.0000000000
     15929      5310  TIP3      H1            -11.4006105324       29.0126751950        7.1727700322  W2        6510            0.0000000000
     15930      5310  TIP3      H2            -10.7899905324       29.5689451950        8.4414600322  W2        6510            0.0000000000
     15931      5311  TIP3      OH2            -6.7580305324       22.3341351950        5.6942400322  W2        6512            0.0000000000
     15932      5311  TIP3      H1             -7.6966105324       22.4456951950        5.5431200322  W2        6512            0.0000000000
     15933      5311  TIP3      H2             -6.4608205324       23.1908251950        6.0008100322  W2        6512            0.0000000000
     15934      5312  TIP3      OH2            -6.0396805324       24.2014051950        7.3549800322  W2        6514            0.0000000000
     15935      5312  TIP3      H1             -5.1477805324       24.0639051950        7.6741000322  W2        6514            0.0000000000
     15936      5312  TIP3      H2             -5.9833205324       24.9920151950        6.8183300322  W2        6514            0.0000000000
     15937      5313  TIP3      OH2           -15.5308805324       28.8151451950       13.2647700322  W2        6515            0.0000000000
     15938      5313  TIP3      H1            -14.7861605324       28.8127151950       12.6634200322  W2        6515            0.0000000000
     15939      5313  TIP3      H2            -15.4532205324       27.9915251950       13.7462800322  W2        6515            0.0000000000
     15940      5314  TIP3      OH2            -8.5303005324       30.9785751950        6.5204400322  W2        6516            0.0000000000
     15941      5314  TIP3      H1             -8.8254605324       31.8053651950        6.9019200322  W2        6516            0.0000000000
     15942      5314  TIP3      H2             -9.2333005324       30.3592651950        6.7165800322  W2        6516            0.0000000000
     15943      5315  TIP3      OH2            -1.1548105324       24.4108151950        7.0496500322  W2        6520            0.0000000000
     15944      5315  TIP3      H1             -1.7091805324       24.0146151950        6.3774000322  W2        6520            0.0000000000
     15945      5315  TIP3      H2             -1.0544505324       25.3213351950        6.7719800322  W2        6520            0.0000000000
     15946      5316  TIP3      OH2            -2.8596405324       33.1968551950        7.5148600322  W2        6522            0.0000000000
     15947      5316  TIP3      H1             -3.2325305324       32.3712351950        7.8239200322  W2        6522            0.0000000000
     15948      5316  TIP3      H2             -2.5822905324       33.0137951950        6.6172000322  W2        6522            0.0000000000
     15949      5317  TIP3      OH2            -5.6992505324       28.0048051950       14.5360500322  W2        6523            0.0000000000
     15950      5317  TIP3      H1             -6.6275605324       27.7729951950       14.5089800322  W2        6523            0.0000000000
     15951      5317  TIP3      H2             -5.2481405324       27.2277851950       14.2059300322  W2        6523            0.0000000000
     15952      5318  TIP3      OH2           -13.1559405324       32.3329651950       10.6689200322  W2        6524            0.0000000000
     15953      5318  TIP3      H1            -12.6287205324       33.1064051950       10.4688000322  W2        6524            0.0000000000
     15954      5318  TIP3      H2            -14.0360905324       32.5578851950       10.3673200322  W2        6524            0.0000000000
     15955      5319  TIP3      OH2           -17.4011705324       27.1953751950        5.2561600322  W2        6525            0.0000000000
     15956      5319  TIP3      H1            -16.7851805324       27.8220951950        5.6356400322  W2        6525            0.0000000000
     15957      5319  TIP3      H2            -18.2629105324       27.5113551950        5.5278100322  W2        6525            0.0000000000
     15958      5320  TIP3      OH2           -11.7287105324       29.9959551950       10.2453500322  W2        6526            0.0000000000
     15959      5320  TIP3      H1            -11.9697105324       30.9213951950       10.2868800322  W2        6526            0.0000000000
     15960      5320  TIP3      H2            -12.4693505324       29.5370851950       10.6417400322  W2        6526            0.0000000000
     15961      5321  TIP3      OH2           -13.0456305324       35.0177151950        9.7905700322  W2        6528            0.0000000000
     15962      5321  TIP3      H1            -13.9955805324       35.1234551950        9.8419000322  W2        6528            0.0000000000
     15963      5321  TIP3      H2            -12.6938205324       35.8384551950       10.1353200322  W2        6528            0.0000000000
     15964      5322  TIP3      OH2            -5.4670805324       31.1734351950        5.3349200322  W2        6530            0.0000000000
     15965      5322  TIP3      H1             -5.1137705324       30.7934151950        6.1392700322  W2        6530            0.0000000000
     15966      5322  TIP3      H2             -6.4157305324       31.0799151950        5.4218500322  W2        6530            0.0000000000
     15967      5323  TIP3      OH2            -0.9636405324       35.6526851950        5.5359400322  W2        6532            0.0000000000
     15968      5323  TIP3      H1             -0.2198505324       36.2387351950        5.3961000322  W2        6532            0.0000000000
     15969      5323  TIP3      H2             -1.6578305324       36.2212651950        5.8691800322  W2        6532            0.0000000000
     15970      5324  TIP3      OH2            -4.6011505324       29.8456351950        7.5617100322  W2        6534            0.0000000000
     15971      5324  TIP3      H1             -4.8783905324       29.1175651950        8.1178200322  W2        6534            0.0000000000
     15972      5324  TIP3      H2             -3.6738505324       29.9648351950        7.7669700322  W2        6534            0.0000000000
     15973      5325  TIP3      OH2           -11.3763005324       32.2850451950        3.7819200322  W2        6536            0.0000000000
     15974      5325  TIP3      H1            -11.1373205324       31.5368551950        3.2348100322  W2        6536            0.0000000000
     15975      5325  TIP3      H2            -11.6451705324       31.8972151950        4.6147000322  W2        6536            0.0000000000
     15976      5326  TIP3      OH2           -12.4392405324       31.8554251950        6.2381800322  W2        6537            0.0000000000
     15977      5326  TIP3      H1            -12.2924405324       31.3354051950        7.0282700322  W2        6537            0.0000000000
     15978      5326  TIP3      H2            -12.4420705324       32.7621851950        6.5447700322  W2        6537            0.0000000000
     15979      5327  TIP3      OH2           -15.9861305324       29.1077551950        6.7487200322  W2        6538            0.0000000000
     15980      5327  TIP3      H1            -16.6722005324       29.4600051950        7.3156900322  W2        6538            0.0000000000
     15981      5327  TIP3      H2            -15.4633405324       29.8707151950        6.5021500322  W2        6538            0.0000000000
     15982      5328  TIP3      OH2            -7.3701305324       21.4223051950        8.1248500322  W2        6540            0.0000000000
     15983      5328  TIP3      H1             -7.1503005324       21.8938451950        7.3213900322  W2        6540            0.0000000000
     15984      5328  TIP3      H2             -6.8117305324       21.8165651950        8.7949100322  W2        6540            0.0000000000
     15985      5329  TIP3      OH2            -9.7015205324       33.5527851950        6.9876000322  W2        6541            0.0000000000
     15986      5329  TIP3      H1            -10.5179105324       34.0497551950        7.0400300322  W2        6541            0.0000000000
     15987      5329  TIP3      H2             -9.1718905324       34.0281351950        6.3474800322  W2        6541            0.0000000000
     15988      5330  TIP3      OH2           -10.1701405324       23.1501851950        8.9596900322  W2        6542            0.0000000000
     15989      5330  TIP3      H1             -9.3578805324       23.6545051950        9.0058600322  W2        6542            0.0000000000
     15990      5330  TIP3      H2            -10.4148405324       23.0051551950        9.8736500322  W2        6542            0.0000000000
     15991      5331  TIP3      OH2            -9.2864705324       20.2314851950        9.8978000322  W2        6544            0.0000000000
     15992      5331  TIP3      H1             -9.6331205324       20.8485451950       10.5422300322  W2        6544            0.0000000000
     15993      5331  TIP3      H2             -8.6277805324       20.7320551950        9.4163500322  W2        6544            0.0000000000
     15994      5332  TIP3      OH2           -12.3632105324       34.5965051950        6.9692900322  W2        6545            0.0000000000
     15995      5332  TIP3      H1            -12.2023405324       35.3962551950        6.4685500322  W2        6545            0.0000000000
     15996      5332  TIP3      H2            -12.5604305324       34.9031051950        7.8543500322  W2        6545            0.0000000000
     15997      5333  TIP3      OH2           -13.6287705324       21.2944251950        6.5850500322  W2        6546            0.0000000000
     15998      5333  TIP3      H1            -13.7122905324       22.1827351950        6.9316900322  W2        6546            0.0000000000
     15999      5333  TIP3      H2            -12.7387405324       21.0290951950        6.8167300322  W2        6546            0.0000000000
     16000      5334  TIP3      OH2            -4.8278205324       25.7935851950       13.0750500322  W2        6548            0.0000000000
     16001      5334  TIP3      H1             -5.6253805324       25.3786051950       12.7465500322  W2        6548            0.0000000000
     16002      5334  TIP3      H2             -4.3827105324       25.1029551950       13.5661000322  W2        6548            0.0000000000
     16003      5335  TIP3      OH2           -15.3702405324       31.7216451950        5.6455000322  W2        6549            0.0000000000
     16004      5335  TIP3      H1            -14.7780905324       32.4211251950        5.9217400322  W2        6549            0.0000000000
     16005      5335  TIP3      H2            -14.9109405324       31.2885951950        4.9259600322  W2        6549            0.0000000000
     16006      5336  TIP3      OH2           -17.0543205324       24.3859451950        4.7614400322  W2        6550            0.0000000000
     16007      5336  TIP3      H1            -17.0990605324       25.3252551950        4.9401400322  W2        6550            0.0000000000
     16008      5336  TIP3      H2            -17.9420005324       24.1504351950        4.4916500322  W2        6550            0.0000000000
     16009      5337  TIP3      OH2            -3.7413605324       35.0498351950       14.6974000322  W2        6551            0.0000000000
     16010      5337  TIP3      H1             -3.8969305324       35.7282751950       14.0403300322  W2        6551            0.0000000000
     16011      5337  TIP3      H2             -2.8087205324       35.1217651950       14.9004600322  W2        6551            0.0000000000
     16012      5338  TIP3      OH2           -16.2461205324       19.1676051950       13.4345400322  W2        6552            0.0000000000
     16013      5338  TIP3      H1            -16.4751405324       19.2268551950       12.5070400322  W2        6552            0.0000000000
     16014      5338  TIP3      H2            -16.6887805324       18.3761551950       13.7409500322  W2        6552            0.0000000000
     16015      5339  TIP3      OH2           -17.3157905324       33.1083151950        9.5951200322  W2        6553            0.0000000000
     16016      5339  TIP3      H1            -18.1479305324       33.5805851950        9.6222600322  W2        6553            0.0000000000
     16017      5339  TIP3      H2            -16.7699605324       33.6180751950        8.9964300322  W2        6553            0.0000000000
     16018      5340  TIP3      OH2            -9.3381205324       34.1481851950        3.9205200322  W2        6556            0.0000000000
     16019      5340  TIP3      H1             -9.9820205324       33.5170451950        4.2418900322  W2        6556            0.0000000000
     16020      5340  TIP3      H2             -8.5762905324       33.6169851950        3.6888700322  W2        6556            0.0000000000
     16021      5341  TIP3      OH2            -4.7338305324       33.9651751950        4.1543200322  W2        6558            0.0000000000
     16022      5341  TIP3      H1             -4.4507905324       33.1706951950        4.6070100322  W2        6558            0.0000000000
     16023      5341  TIP3      H2             -3.9940405324       34.1982751950        3.5934300322  W2        6558            0.0000000000
     16024      5342  TIP3      OH2           -13.7791005324       29.8746651950        4.0118100322  W2        6560            0.0000000000
     16025      5342  TIP3      H1            -13.7146905324       29.0806251950        4.5424500322  W2        6560            0.0000000000
     16026      5342  TIP3      H2            -13.1261805324       29.7559451950        3.3220100322  W2        6560            0.0000000000
     16027      5343  TIP3      OH2            -8.4267605324       30.9218351950        3.7476100322  W2        6562            0.0000000000
     16028      5343  TIP3      H1             -8.6953505324       31.1020451950        4.6485000322  W2        6562            0.0000000000
     16029      5343  TIP3      H2             -8.6332005324       29.9964551950        3.6161900322  W2        6562            0.0000000000
     16030      5344  TIP3      OH2           -12.6297205324       27.8472851950        6.3176100322  W2        6565            0.0000000000
     16031      5344  TIP3      H1            -13.0895205324       27.3631151950        7.0034600322  W2        6565            0.0000000000
     16032      5344  TIP3      H2            -12.3748505324       27.1788251950        5.6816600322  W2        6565            0.0000000000
     16033      5345  TIP3      OH2           -11.5586805324       26.0904651950        4.5799300322  W2        6567            0.0000000000
     16034      5345  TIP3      H1            -11.7391805324       25.9355851950        3.6527600322  W2        6567            0.0000000000
     16035      5345  TIP3      H2            -10.6086305324       26.1983351950        4.6247200322  W2        6567            0.0000000000
     16036      5346  TIP3      OH2            -2.1688505324       28.4448851950        4.0257400322  W2        6569            0.0000000000
     16037      5346  TIP3      H1             -2.4423705324       28.0204351950        3.2125700322  W2        6569            0.0000000000
     16038      5346  TIP3      H2             -2.1294405324       29.3763351950        3.8087800322  W2        6569            0.0000000000
     16039      5347  TIP3      OH2           -11.6615105324       36.7808351950        5.5812900322  W2        6583            0.0000000000
     16040      5347  TIP3      H1            -10.7284405324       36.9387051950        5.7251300322  W2        6583            0.0000000000
     16041      5347  TIP3      H2            -11.9256305324       37.4561351950        4.9564400322  W2        6583            0.0000000000
     16042      5348  TIP3      OH2           -18.0930205324       31.4172151950        5.0641000322  W2        6584            0.0000000000
     16043      5348  TIP3      H1            -17.1791005324       31.4961051950        5.3374900322  W2        6584            0.0000000000
     16044      5348  TIP3      H2            -18.0857105324       30.7301751950        4.3976600322  W2        6584            0.0000000000
     16045      5349  TIP3      OH2           -19.4439605324       36.8100651950       10.1414900322  W2        6585            0.0000000000
     16046      5349  TIP3      H1            -20.0912505324       36.3482351950        9.6086100322  W2        6585            0.0000000000
     16047      5349  TIP3      H2            -19.0895005324       36.1383951950       10.7241100322  W2        6585            0.0000000000
     16048      5350  TIP3      OH2           -18.5740405324       34.8907651950       11.9461100322  W2        6586            0.0000000000
     16049      5350  TIP3      H1            -18.9083605324       34.0104951950       12.1181300322  W2        6586            0.0000000000
     16050      5350  TIP3      H2            -18.3518005324       35.2362651950       12.8106700322  W2        6586            0.0000000000
     16051      5351  TIP3      OH2            -1.7105705324       29.3136951950        8.0007800322  W2        6590            0.0000000000
     16052      5351  TIP3      H1             -0.8604305324       29.7347851950        8.1279400322  W2        6590            0.0000000000
     16053      5351  TIP3      H2             -1.7050605324       28.5737051950        8.6079200322  W2        6590            0.0000000000
     16054      5352  TIP3      OH2            -1.3160105324       27.3674351950        9.8243500322  W2        6591            0.0000000000
     16055      5352  TIP3      H1             -2.0425505324       26.8876951950       10.2221100322  W2        6591            0.0000000000
     16056      5352  TIP3      H2             -0.7346805324       27.5729051950       10.5565100322  W2        6591            0.0000000000
     16057      5353  TIP3      OH2            -1.5568905324       30.1521851950       14.7721100322  W2        6592            0.0000000000
     16058      5353  TIP3      H1             -0.7234705324       29.7741851950       14.4914700322  W2        6592            0.0000000000
     16059      5353  TIP3      H2             -1.4448605324       31.0953051950       14.6530200322  W2        6592            0.0000000000
     16060      5354  TIP3      OH2            -1.0477005324       27.2682851950        6.2154800322  W2        6594            0.0000000000
     16061      5354  TIP3      H1             -1.5695905324       27.6246951950        5.4965700322  W2        6594            0.0000000000
     16062      5354  TIP3      H2             -1.0807805324       27.9430651950        6.8935700322  W2        6594            0.0000000000
     16063      5355  TIP3      OH2            -2.6988005324       24.5078451950        4.7661900322  W2        6595            0.0000000000
     16064      5355  TIP3      H1             -2.6023605324       25.1745451950        4.0861600322  W2        6595            0.0000000000
     16065      5355  TIP3      H2             -2.8388405324       23.6924751950        4.2847400322  W2        6595            0.0000000000
     16066      5356  TIP3      OH2            -3.5293305324       25.8880851950       10.3872200322  W2        6596            0.0000000000
     16067      5356  TIP3      H1             -3.6794505324       24.9429451950       10.3670000322  W2        6596            0.0000000000
     16068      5356  TIP3      H2             -3.8828805324       26.1692251950       11.2311300322  W2        6596            0.0000000000
     16069      5357  TIP3      OH2           -18.4940905324       27.9663051950       14.3976000322  W2        6597            0.0000000000
     16070      5357  TIP3      H1            -18.3098005324       27.8844751950       13.4618900322  W2        6597            0.0000000000
     16071      5357  TIP3      H2            -17.6448005324       27.8420051950       14.8212400322  W2        6597            0.0000000000
     16072      5358  TIP3      OH2            -3.4514205324       21.9158251950        3.8837400322  W2        6600            0.0000000000
     16073      5358  TIP3      H1             -2.8408405324       21.5445051950        4.5205600322  W2        6600            0.0000000000
     16074      5358  TIP3      H2             -4.2882705324       21.4945151950        4.0797400322  W2        6600            0.0000000000
     16075      5359  TIP3      OH2            -3.8188505324       23.4706651950        8.8497300322  W2        6601            0.0000000000
     16076      5359  TIP3      H1             -3.5391405324       22.5637051950        8.9739000322  W2        6601            0.0000000000
     16077      5359  TIP3      H2             -3.0596805324       23.9048151950        8.4606500322  W2        6601            0.0000000000
     16078      5360  TIP3      OH2            -3.2070205324       24.0524051950       14.2856200322  W2        6602            0.0000000000
     16079      5360  TIP3      H1             -2.2742205324       24.2643951950       14.2512200322  W2        6602            0.0000000000
     16080      5360  TIP3      H2             -3.4422705324       24.1536151950       15.2079200322  W2        6602            0.0000000000
     16081      5361  TIP3      OH2            -3.2053705324       20.7335951950        8.8979300322  W2        6606            0.0000000000
     16082      5361  TIP3      H1             -3.0228705324       20.2847451950        9.7234300322  W2        6606            0.0000000000
     16083      5361  TIP3      H2             -3.8050805324       20.1490351950        8.4343900322  W2        6606            0.0000000000
     16084      5362  TIP3      OH2           -17.6753605324       21.5489651950       13.4297700322  W2        6607            0.0000000000
     16085      5362  TIP3      H1            -17.2302005324       20.7572151950       13.7317400322  W2        6607            0.0000000000
     16086      5362  TIP3      H2            -17.2090605324       22.2654851950       13.8603300322  W2        6607            0.0000000000
     16087      5363  TIP3      OH2           -19.3713305324       24.5482651950       14.4987900322  W2        6608            0.0000000000
     16088      5363  TIP3      H1            -18.8793505324       24.3273151950       13.7079900322  W2        6608            0.0000000000
     16089      5363  TIP3      H2            -19.0092405324       25.3886051950       14.7797400322  W2        6608            0.0000000000
     16090      5364  TIP3      OH2            -1.3387505324       20.8014051950        5.4259600322  W2        6610            0.0000000000
     16091      5364  TIP3      H1             -0.9264905324       20.0799751950        4.9507600322  W2        6610            0.0000000000
     16092      5364  TIP3      H2             -0.6571005324       21.4708651950        5.4843900322  W2        6610            0.0000000000
     16093      5365  TIP3      OH2           -19.0576805324       20.8061751950        8.5530300322  W2        6611            0.0000000000
     16094      5365  TIP3      H1            -19.9828405324       21.0148351950        8.4235800322  W2        6611            0.0000000000
     16095      5365  TIP3      H2            -18.6036905324       21.2902551950        7.8632600322  W2        6611            0.0000000000
     16096      5366  TIP3      OH2            -4.2869605324       35.7903451950       10.4987700322  W2        6612            0.0000000000
     16097      5366  TIP3      H1             -3.6346705324       35.4425551950        9.8906800322  W2        6612            0.0000000000
     16098      5366  TIP3      H2             -3.7765805324       36.2786651950       11.1447400322  W2        6612            0.0000000000
     16099      5367  TIP3      OH2           -17.1314405324       35.5732451950       14.2579700322  W2        6624            0.0000000000
     16100      5367  TIP3      H1            -17.1498405324       35.1477551950       15.1152000322  W2        6624            0.0000000000
     16101      5367  TIP3      H2            -16.3266505324       35.2547451950       13.8491900322  W2        6624            0.0000000000
     16102      5368  TIP3      OH2           -14.9901305324       34.2831151950       12.9129600322  W2        6625            0.0000000000
     16103      5368  TIP3      H1            -15.2090605324       33.3668551950       13.0825600322  W2        6625            0.0000000000
     16104      5368  TIP3      H2            -14.1659105324       34.4231551950       13.3791000322  W2        6625            0.0000000000
     16105      5369  TIP3      OH2           -12.4528805324       34.7530451950       13.7617600322  W2        6626            0.0000000000
     16106      5369  TIP3      H1            -12.2403105324       33.8649451950       13.4748500322  W2        6626            0.0000000000
     16107      5369  TIP3      H2            -12.3883705324       34.7188151950       14.7161600322  W2        6626            0.0000000000
     16108      5370  TIP3      OH2            -8.9445105324       20.4171051950       12.9060900322  W2        6627            0.0000000000
     16109      5370  TIP3      H1             -9.6188305324       19.7876651950       13.1616700322  W2        6627            0.0000000000
     16110      5370  TIP3      H2             -8.3805905324       19.9329951950       12.3028800322  W2        6627            0.0000000000
     16111      5371  TIP3      OH2            -3.8017905324       18.5245051950       13.0188000322  W2        6628            0.0000000000
     16112      5371  TIP3      H1             -3.1980305324       19.0720451950       12.5169000322  W2        6628            0.0000000000
     16113      5371  TIP3      H2             -4.6715905324       18.8435451950       12.7782100322  W2        6628            0.0000000000
     16114      5372  TIP3      OH2            -2.0747505324       19.6633751950       11.3518900322  W2        6629            0.0000000000
     16115      5372  TIP3      H1             -1.4630005324       19.1489451950       10.8252500322  W2        6629            0.0000000000
     16116      5372  TIP3      H2             -1.6924105324       20.5405851950       11.3753300322  W2        6629            0.0000000000
     16117      5373  TIP3      OH2           -16.6177605324       19.0511351950       10.7280800322  W2        6630            0.0000000000
     16118      5373  TIP3      H1            -17.3947805324       18.8166251950       10.2206700322  W2        6630            0.0000000000
     16119      5373  TIP3      H2            -16.0874005324       18.2543451950       10.7368800322  W2        6630            0.0000000000
     16120      5374  TIP3      OH2           -17.7814205324       18.8489451950        6.5316900322  W2        6631            0.0000000000
     16121      5374  TIP3      H1            -17.3423505324       19.4599951950        5.9400400322  W2        6631            0.0000000000
     16122      5374  TIP3      H2            -18.4151805324       19.3873551950        7.0056900322  W2        6631            0.0000000000
     16123      5375  TIP3      OH2           -12.0385005324       18.9778451950       10.5413900322  W2        6632            0.0000000000
     16124      5375  TIP3      H1            -11.1641605324       19.3662751950       10.5118200322  W2        6632            0.0000000000
     16125      5375  TIP3      H2            -12.1744205324       18.7626251950       11.4641100322  W2        6632            0.0000000000
     16126      5376  TIP3      OH2            -6.4816605324       19.0078251950       12.1905600322  W2        6633            0.0000000000
     16127      5376  TIP3      H1             -6.4055005324       19.1029851950       11.2411600322  W2        6633            0.0000000000
     16128      5376  TIP3      H2             -6.7567405324       18.1001151950       12.3194700322  W2        6633            0.0000000000
     16129      5377  TIP3      OH2            -5.1284005324       19.0336051950        7.8830600322  W2        6634            0.0000000000
     16130      5377  TIP3      H1             -5.8312905324       19.6485251950        7.6732000322  W2        6634            0.0000000000
     16131      5377  TIP3      H2             -5.5732605324       18.1962751950        8.0141500322  W2        6634            0.0000000000
     16132      5378  TIP3      OH2           -17.8804705324       34.7971651950        7.4292000322  W2        6635            0.0000000000
     16133      5378  TIP3      H1            -18.5654805324       34.7590551950        6.7617100322  W2        6635            0.0000000000
     16134      5378  TIP3      H2            -17.8767505324       35.7099251950        7.7174100322  W2        6635            0.0000000000
     16135      5379  TIP3      OH2           -15.9205105324       20.7650951950        4.9741000322  W2        6636            0.0000000000
     16136      5379  TIP3      H1            -15.4291705324       20.1353351950        4.4466500322  W2        6636            0.0000000000
     16137      5379  TIP3      H2            -15.2968805324       21.0610351950        5.6372200322  W2        6636            0.0000000000
     16138      5380  TIP3      OH2           -10.8945005324       21.0582451950        7.4311500322  W2        6637            0.0000000000
     16139      5380  TIP3      H1            -10.7163705324       20.4115651950        8.1140100322  W2        6637            0.0000000000
     16140      5380  TIP3      H2            -10.9478805324       21.8920151950        7.8982600322  W2        6637            0.0000000000
     16141      5381  TIP3      OH2            -9.0161205324       36.0066551950        5.8268200322  W2        6638            0.0000000000
     16142      5381  TIP3      H1             -8.1501005324       36.3733951950        5.6486400322  W2        6638            0.0000000000
     16143      5381  TIP3      H2             -9.2628405324       35.5674551950        5.0129000322  W2        6638            0.0000000000
     16144      5382  TIP3      OH2            -2.3071605324       35.5696851950        8.5059300322  W2        6639            0.0000000000
     16145      5382  TIP3      H1             -2.5014505324       34.8218951950        7.9408900322  W2        6639            0.0000000000
     16146      5382  TIP3      H2             -2.3461505324       36.3276951950        7.9227200322  W2        6639            0.0000000000
     16147      5383  TIP3      OH2           -16.0623505324       35.7172451950        4.4544100322  W2        6642            0.0000000000
     16148      5383  TIP3      H1            -16.3298905324       36.0035351950        5.3277200322  W2        6642            0.0000000000
     16149      5383  TIP3      H2            -15.2910905324       35.1711651950        4.6066600322  W2        6642            0.0000000000
     16150      5384  TIP3      OH2            11.3164994676       28.2073651950       10.6868300322  W2        6645            0.0000000000
     16151      5384  TIP3      H1             11.4056094676       29.1511851950       10.5545400322  W2        6645            0.0000000000
     16152      5384  TIP3      H2             10.6782594676       27.9320051950       10.0287700322  W2        6645            0.0000000000
     16153      5385  TIP3      OH2            10.2496294676       27.4624351950       14.1056500322  W2        6646            0.0000000000
     16154      5385  TIP3      H1             10.2113794676       26.8160651950       14.8106100322  W2        6646            0.0000000000
     16155      5385  TIP3      H2              9.9272794676       26.9958751950       13.3345200322  W2        6646            0.0000000000
     16156      5386  TIP3      OH2            13.9556494676       30.4014751950       12.4071600322  W2        6648            0.0000000000
     16157      5386  TIP3      H1             13.5149194676       29.6810751950       12.8577200322  W2        6648            0.0000000000
     16158      5386  TIP3      H2             13.9426194676       31.1221951950       13.0369300322  W2        6648            0.0000000000
     16159      5387  TIP3      OH2             3.5414394676       31.5265351950       14.2335500322  W2        6649            0.0000000000
     16160      5387  TIP3      H1              3.1719594676       30.7245851950       13.8639800322  W2        6649            0.0000000000
     16161      5387  TIP3      H2              4.4825494676       31.3580251950       14.2798900322  W2        6649            0.0000000000
     16162      5388  TIP3      OH2             0.1514894676       25.1867951950        9.6264300322  W2        6650            0.0000000000
     16163      5388  TIP3      H1             -0.2961705324       26.0326651950        9.6080800322  W2        6650            0.0000000000
     16164      5388  TIP3      H2             -0.4093905324       24.6072151950        9.1109400322  W2        6650            0.0000000000
     16165      5389  TIP3      OH2             0.8620994676       27.3487551950       11.7522300322  W2        6651            0.0000000000
     16166      5389  TIP3      H1              1.0754494676       26.5789151950       12.2795300322  W2        6651            0.0000000000
     16167      5389  TIP3      H2              1.5998594676       27.4384251950       11.1489900322  W2        6651            0.0000000000
     16168      5390  TIP3      OH2            11.0671994676       35.5056451950       12.6192000322  W2        6652            0.0000000000
     16169      5390  TIP3      H1             11.6868394676       34.8291151950       12.3461200322  W2        6652            0.0000000000
     16170      5390  TIP3      H2             10.8589394676       35.2877251950       13.5276900322  W2        6652            0.0000000000
     16171      5391  TIP3      OH2             8.6390694676       29.8945751950       14.5117500322  W2        6653            0.0000000000
     16172      5391  TIP3      H1              8.9428594676       29.2087151950       13.9171600322  W2        6653            0.0000000000
     16173      5391  TIP3      H2              9.3604694676       30.0134451950       15.1295500322  W2        6653            0.0000000000
     16174      5392  TIP3      OH2            11.7797694676       24.2888151950       14.8392300322  W2        6655            0.0000000000
     16175      5392  TIP3      H1             11.9223594676       23.3425151950       14.8593900322  W2        6655            0.0000000000
     16176      5392  TIP3      H2             11.6736694676       24.4957951950       13.9107200322  W2        6655            0.0000000000
     16177      5393  TIP3      OH2             4.9345994676       22.3904551950       12.1117100322  W2        6656            0.0000000000
     16178      5393  TIP3      H1              4.9777094676       23.2503051950       11.6933400322  W2        6656            0.0000000000
     16179      5393  TIP3      H2              4.4770094676       21.8379251950       11.4780300322  W2        6656            0.0000000000
     16180      5394  TIP3      OH2            12.6568694676       22.5210151950       10.5125400322  W2        6657            0.0000000000
     16181      5394  TIP3      H1             13.3032994676       22.1923351950       11.1373000322  W2        6657            0.0000000000
     16182      5394  TIP3      H2             13.1668094676       23.0389151950        9.8896800322  W2        6657            0.0000000000
     16183      5395  TIP3      OH2             1.5547494676       24.7870351950       12.8738500322  W2        6658            0.0000000000
     16184      5395  TIP3      H1              2.2084094676       24.2372051950       13.3058600322  W2        6658            0.0000000000
     16185      5395  TIP3      H2              1.5786794676       24.5129351950       11.9570500322  W2        6658            0.0000000000
     16186      5396  TIP3      OH2             6.7111994676       26.3371651950       12.0890000322  W2        6659            0.0000000000
     16187      5396  TIP3      H1              7.3272994676       25.8107051950       12.5984000322  W2        6659            0.0000000000
     16188      5396  TIP3      H2              6.1250794676       25.6970351950       11.6853600322  W2        6659            0.0000000000
     16189      5397  TIP3      OH2            11.1137694676       30.8084051950        9.7297000322  W2        6662            0.0000000000
     16190      5397  TIP3      H1             10.8182794676       30.4856351950        8.8783900322  W2        6662            0.0000000000
     16191      5397  TIP3      H2             10.7895494676       31.7080751950        9.7709600322  W2        6662            0.0000000000
     16192      5398  TIP3      OH2            14.4207094676       21.8119451950       12.4931300322  W2        6664            0.0000000000
     16193      5398  TIP3      H1             14.2055094676       21.0462851950       13.0257300322  W2        6664            0.0000000000
     16194      5398  TIP3      H2             15.0764494676       22.2844051950       13.0059800322  W2        6664            0.0000000000
     16195      5399  TIP3      OH2             3.3385194676       23.2004751950       14.1380100322  W2        6665            0.0000000000
     16196      5399  TIP3      H1              3.9521494676       23.8332351950       14.5112500322  W2        6665            0.0000000000
     16197      5399  TIP3      H2              3.8505894676       22.7279751950       13.4817000322  W2        6665            0.0000000000
     16198      5400  TIP3      OH2             0.8424494676       30.6189551950        8.0422400322  W2        6667            0.0000000000
     16199      5400  TIP3      H1              0.5705394676       30.8480551950        7.1535300322  W2        6667            0.0000000000
     16200      5400  TIP3      H2              0.8880194676       31.4568351950        8.5027700322  W2        6667            0.0000000000
     16201      5401  TIP3      OH2            14.4674194676       32.2405451950       14.7550900322  W2        6668            0.0000000000
     16202      5401  TIP3      H1             13.5257894676       32.2989351950       14.9167800322  W2        6668            0.0000000000
     16203      5401  TIP3      H2             14.7440294676       33.1465951950       14.6180600322  W2        6668            0.0000000000
     16204      5402  TIP3      OH2             7.7712594676       18.6138051950       13.6382800322  W2        6670            0.0000000000
     16205      5402  TIP3      H1              7.6536794676       17.6654051950       13.5841100322  W2        6670            0.0000000000
     16206      5402  TIP3      H2              6.9162694676       18.9464151950       13.9113900322  W2        6670            0.0000000000
     16207      5403  TIP3      OH2            12.7195394676       34.0218951950       11.3802500322  W2        6671            0.0000000000
     16208      5403  TIP3      H1             13.1447694676       33.3146851950       10.8952100322  W2        6671            0.0000000000
     16209      5403  TIP3      H2             13.0365394676       34.8231651950       10.9634700322  W2        6671            0.0000000000
     16210      5404  TIP3      OH2            13.8791894676       31.9227451950        9.8889100322  W2        6672            0.0000000000
     16211      5404  TIP3      H1             13.6216694676       31.2327551950        9.2775000322  W2        6672            0.0000000000
     16212      5404  TIP3      H2             13.9502694676       31.4798651950       10.7345000322  W2        6672            0.0000000000
     16213      5405  TIP3      OH2            10.0377494676       27.4513651950        8.1388600322  W2        6674            0.0000000000
     16214      5405  TIP3      H1              9.3262994676       27.9863351950        7.7869100322  W2        6674            0.0000000000
     16215      5405  TIP3      H2             10.7287094676       27.5065751950        7.4787500322  W2        6674            0.0000000000
     16216      5406  TIP3      OH2            10.0916694676       25.9087951950        5.1773600322  W2        6675            0.0000000000
     16217      5406  TIP3      H1             10.7926594676       25.9314851950        5.8287600322  W2        6675            0.0000000000
     16218      5406  TIP3      H2             10.3939594676       25.2807651950        4.5212900322  W2        6675            0.0000000000
     16219      5407  TIP3      OH2            13.4435194676       27.6606951950        9.0904500322  W2        6677            0.0000000000
     16220      5407  TIP3      H1             12.7116194676       27.8890651950        9.6635100322  W2        6677            0.0000000000
     16221      5407  TIP3      H2             13.8907394676       26.9469651950        9.5452000322  W2        6677            0.0000000000
     16222      5408  TIP3      OH2             5.0888894676       28.2913151950       10.9729500322  W2        6679            0.0000000000
     16223      5408  TIP3      H1              4.7584094676       27.9206551950       10.1546500322  W2        6679            0.0000000000
     16224      5408  TIP3      H2              5.6772994676       27.6207151950       11.3197800322  W2        6679            0.0000000000
     16225      5409  TIP3      OH2             6.4556394676       31.7193751950       13.6541700322  W2        6680            0.0000000000
     16226      5409  TIP3      H1              6.3607694676       31.1406851950       12.8976300322  W2        6680            0.0000000000
     16227      5409  TIP3      H2              7.1849994676       31.3479451950       14.1504500322  W2        6680            0.0000000000
     16228      5410  TIP3      OH2             5.4554394676       27.0598751950       14.6064500322  W2        6681            0.0000000000
     16229      5410  TIP3      H1              6.0206894676       27.1812951950       13.8435700322  W2        6681            0.0000000000
     16230      5410  TIP3      H2              5.7743294676       27.6973751950       15.2453000322  W2        6681            0.0000000000
     16231      5411  TIP3      OH2            12.3144694676       26.8229851950        6.7755700322  W2        6684            0.0000000000
     16232      5411  TIP3      H1             12.8940194676       26.9730151950        7.5224600322  W2        6684            0.0000000000
     16233      5411  TIP3      H2             12.7284694676       27.2937251950        6.0522100322  W2        6684            0.0000000000
     16234      5412  TIP3      OH2            10.0409594676       33.5598351950       10.2108800322  W2        6686            0.0000000000
     16235      5412  TIP3      H1             10.5147194676       33.8554651950       10.9883000322  W2        6686            0.0000000000
     16236      5412  TIP3      H2              9.4778894676       34.2979951950        9.9778400322  W2        6686            0.0000000000
     16237      5413  TIP3      OH2            16.0133094676       18.5730251950        6.5885400322  W2        6688            0.0000000000
     16238      5413  TIP3      H1             15.1133794676       18.7119251950        6.8836000322  W2        6688            0.0000000000
     16239      5413  TIP3      H2             16.2651494676       19.4044851950        6.1867100322  W2        6688            0.0000000000
     16240      5414  TIP3      OH2             4.0791594676       27.3607451950        8.5622300322  W2        6689            0.0000000000
     16241      5414  TIP3      H1              3.7872894676       28.1289151950        8.0713600322  W2        6689            0.0000000000
     16242      5414  TIP3      H2              3.4046794676       26.7013651950        8.3993700322  W2        6689            0.0000000000
     16243      5415  TIP3      OH2            17.2024494676       32.9392651950        4.9649300322  W2        6690            0.0000000000
     16244      5415  TIP3      H1             17.2757994676       33.8782851950        5.1354600322  W2        6690            0.0000000000
     16245      5415  TIP3      H2             18.1079594676       32.6341251950        4.9086600322  W2        6690            0.0000000000
     16246      5416  TIP3      OH2            -0.0775605324       32.5040451950       14.2612300322  W2        6692            0.0000000000
     16247      5416  TIP3      H1              0.8684994676       32.3597451950       14.2421800322  W2        6692            0.0000000000
     16248      5416  TIP3      H2             -0.1899305324       33.2883251950       14.7983500322  W2        6692            0.0000000000
     16249      5417  TIP3      OH2             9.5132694676       36.5163051950        8.6258000322  W2        6695            0.0000000000
     16250      5417  TIP3      H1              9.4378694676       36.3950251950        7.6793200322  W2        6695            0.0000000000
     16251      5417  TIP3      H2              9.5461394676       37.4655751950        8.7442600322  W2        6695            0.0000000000
     16252      5418  TIP3      OH2             3.1666494676       35.3050051950       10.4067000322  W2        6696            0.0000000000
     16253      5418  TIP3      H1              3.3186894676       34.9570451950       11.2853500322  W2        6696            0.0000000000
     16254      5418  TIP3      H2              2.3156894676       34.9487351950       10.1514200322  W2        6696            0.0000000000
     16255      5419  TIP3      OH2            12.6148694676       35.6703251950        5.6280400322  W2        6697            0.0000000000
     16256      5419  TIP3      H1             12.9897094676       34.9259351950        5.1573000322  W2        6697            0.0000000000
     16257      5419  TIP3      H2             12.6192394676       35.4003851950        6.5463700322  W2        6697            0.0000000000
     16258      5420  TIP3      OH2            12.2836794676       35.5960351950        8.3772600322  W2        6698            0.0000000000
     16259      5420  TIP3      H1             11.3486594676       35.6962251950        8.5559600322  W2        6698            0.0000000000
     16260      5420  TIP3      H2             12.5638694676       34.8866351950        8.9555800322  W2        6698            0.0000000000
     16261      5421  TIP3      OH2             5.0400194676       19.5172551950       14.4159100322  W2        6701            0.0000000000
     16262      5421  TIP3      H1              4.1783894676       19.4300751950       14.0082000322  W2        6701            0.0000000000
     16263      5421  TIP3      H2              5.0175894676       20.3732651950       14.8436700322  W2        6701            0.0000000000
     16264      5422  TIP3      OH2            13.7917794676       27.8558151950        4.4053600322  W2        6704            0.0000000000
     16265      5422  TIP3      H1             13.8338594676       27.6332051950        3.4753600322  W2        6704            0.0000000000
     16266      5422  TIP3      H2             14.6409894676       28.2545251950        4.5953500322  W2        6704            0.0000000000
     16267      5423  TIP3      OH2             9.3645294676       21.7316351950        5.0756900322  W2        6705            0.0000000000
     16268      5423  TIP3      H1              9.1110094676       21.7507951950        5.9985000322  W2        6705            0.0000000000
     16269      5423  TIP3      H2              9.1077394676       20.8601751950        4.7743100322  W2        6705            0.0000000000
     16270      5424  TIP3      OH2             5.1279394676       24.7037151950       10.4229300322  W2        6707            0.0000000000
     16271      5424  TIP3      H1              4.2352294676       24.3633251950       10.3643100322  W2        6707            0.0000000000
     16272      5424  TIP3      H2              5.5785994676       24.3268051950        9.6672500322  W2        6707            0.0000000000
     16273      5425  TIP3      OH2            10.6634894676       25.1197451950        9.2400100322  W2        6708            0.0000000000
     16274      5425  TIP3      H1             10.2545194676       25.9346051950        8.9484900322  W2        6708            0.0000000000
     16275      5425  TIP3      H2             11.3841094676       24.9797551950        8.6257200322  W2        6708            0.0000000000
     16276      5426  TIP3      OH2            11.6682594676       24.5657851950       12.0539800322  W2        6710            0.0000000000
     16277      5426  TIP3      H1             11.4727094676       25.1714651950       11.3390400322  W2        6710            0.0000000000
     16278      5426  TIP3      H2             11.8495194676       23.7323051950       11.6196100322  W2        6710            0.0000000000
     16279      5427  TIP3      OH2             6.2468194676       22.1772851950        4.1767300322  W2        6712            0.0000000000
     16280      5427  TIP3      H1              5.8158894676       21.7322951950        4.9064700322  W2        6712            0.0000000000
     16281      5427  TIP3      H2              5.5286894676       22.5489151950        3.6644800322  W2        6712            0.0000000000
     16282      5428  TIP3      OH2            -0.5108405324       21.9192351950       11.2286000322  W2        6713            0.0000000000
     16283      5428  TIP3      H1              0.1199294676       21.8904451950       11.9479900322  W2        6713            0.0000000000
     16284      5428  TIP3      H2             -0.0614105324       21.4941051950       10.4981900322  W2        6713            0.0000000000
     16285      5429  TIP3      OH2             0.7633694676       22.6654351950        6.6526400322  W2        6714            0.0000000000
     16286      5429  TIP3      H1              1.2375394676       23.2564251950        6.0677300322  W2        6714            0.0000000000
     16287      5429  TIP3      H2              0.0460094676       23.1957251950        6.9996500322  W2        6714            0.0000000000
     16288      5430  TIP3      OH2             7.7094694676       22.1314651950       11.5093400322  W2        6716            0.0000000000
     16289      5430  TIP3      H1              6.7985794676       22.1881451950       11.7979400322  W2        6716            0.0000000000
     16290      5430  TIP3      H2              8.2147594676       22.0710151950       12.3200600322  W2        6716            0.0000000000
     16291      5431  TIP3      OH2             2.5378094676       23.7600951950       10.3361000322  W2        6717            0.0000000000
     16292      5431  TIP3      H1              1.6486094676       23.8596451950        9.9960600322  W2        6717            0.0000000000
     16293      5431  TIP3      H2              2.8342994676       22.9183951950        9.9898900322  W2        6717            0.0000000000
     16294      5432  TIP3      OH2             6.1909894676       23.7603551950        7.9925600322  W2        6718            0.0000000000
     16295      5432  TIP3      H1              7.1225394676       23.8893551950        8.1708700322  W2        6718            0.0000000000
     16296      5432  TIP3      H2              5.9760194676       24.4297851950        7.3430300322  W2        6718            0.0000000000
     16297      5433  TIP3      OH2            12.1146594676       21.3660951950       14.7735200322  W2        6719            0.0000000000
     16298      5433  TIP3      H1             11.4378194676       21.4974051950       15.4374900322  W2        6719            0.0000000000
     16299      5433  TIP3      H2             11.6291494676       21.2110451950       13.9632900322  W2        6719            0.0000000000
     16300      5434  TIP3      OH2             4.8650094676       24.9545751950        5.5591700322  W2        6720            0.0000000000
     16301      5434  TIP3      H1              4.3225194676       24.5749551950        4.8679300322  W2        6720            0.0000000000
     16302      5434  TIP3      H2              5.6984994676       25.1490451950        5.1305800322  W2        6720            0.0000000000
     16303      5435  TIP3      OH2             9.0294394676       24.9187651950       13.3963000322  W2        6723            0.0000000000
     16304      5435  TIP3      H1              9.5937794676       24.3724251950       12.8492600322  W2        6723            0.0000000000
     16305      5435  TIP3      H2              8.8817794676       24.3969551950       14.1850600322  W2        6723            0.0000000000
     16306      5436  TIP3      OH2             4.0314094676       21.0553751950        9.8147800322  W2        6724            0.0000000000
     16307      5436  TIP3      H1              3.7143594676       20.1529051950        9.7793200322  W2        6724            0.0000000000
     16308      5436  TIP3      H2              4.8128194676       21.0571151950        9.2619400322  W2        6724            0.0000000000
     16309      5437  TIP3      OH2             8.2002894676       29.5201451950        7.4949800322  W2        6726            0.0000000000
     16310      5437  TIP3      H1              7.4553894676       29.0126751950        7.1727700322  W2        6726            0.0000000000
     16311      5437  TIP3      H2              8.0660094676       29.5689451950        8.4414600322  W2        6726            0.0000000000
     16312      5438  TIP3      OH2            12.0979694676       22.3341351950        5.6942400322  W2        6728            0.0000000000
     16313      5438  TIP3      H1             11.1593894676       22.4456951950        5.5431200322  W2        6728            0.0000000000
     16314      5438  TIP3      H2             12.3951794676       23.1908251950        6.0008100322  W2        6728            0.0000000000
     16315      5439  TIP3      OH2            12.8163194676       24.2014051950        7.3549800322  W2        6730            0.0000000000
     16316      5439  TIP3      H1             13.7082194676       24.0639051950        7.6741000322  W2        6730            0.0000000000
     16317      5439  TIP3      H2             12.8726794676       24.9920151950        6.8183300322  W2        6730            0.0000000000
     16318      5440  TIP3      OH2             3.3251194676       28.8151451950       13.2647700322  W2        6731            0.0000000000
     16319      5440  TIP3      H1              4.0698394676       28.8127151950       12.6634200322  W2        6731            0.0000000000
     16320      5440  TIP3      H2              3.4027794676       27.9915251950       13.7462800322  W2        6731            0.0000000000
     16321      5441  TIP3      OH2            10.3256994676       30.9785751950        6.5204400322  W2        6732            0.0000000000
     16322      5441  TIP3      H1             10.0305394676       31.8053651950        6.9019200322  W2        6732            0.0000000000
     16323      5441  TIP3      H2              9.6226994676       30.3592651950        6.7165800322  W2        6732            0.0000000000
     16324      5442  TIP3      OH2            17.7011894676       24.4108151950        7.0496500322  W2        6736            0.0000000000
     16325      5442  TIP3      H1             17.1468194676       24.0146151950        6.3774000322  W2        6736            0.0000000000
     16326      5442  TIP3      H2             17.8015494676       25.3213351950        6.7719800322  W2        6736            0.0000000000
     16327      5443  TIP3      OH2            15.9963594676       33.1968551950        7.5148600322  W2        6738            0.0000000000
     16328      5443  TIP3      H1             15.6234694676       32.3712351950        7.8239200322  W2        6738            0.0000000000
     16329      5443  TIP3      H2             16.2737094676       33.0137951950        6.6172000322  W2        6738            0.0000000000
     16330      5444  TIP3      OH2            13.1567494676       28.0048051950       14.5360500322  W2        6739            0.0000000000
     16331      5444  TIP3      H1             12.2284394676       27.7729951950       14.5089800322  W2        6739            0.0000000000
     16332      5444  TIP3      H2             13.6078594676       27.2277851950       14.2059300322  W2        6739            0.0000000000
     16333      5445  TIP3      OH2             5.7000594676       32.3329651950       10.6689200322  W2        6740            0.0000000000
     16334      5445  TIP3      H1              6.2272794676       33.1064051950       10.4688000322  W2        6740            0.0000000000
     16335      5445  TIP3      H2              4.8199094676       32.5578851950       10.3673200322  W2        6740            0.0000000000
     16336      5446  TIP3      OH2             1.4548294676       27.1953751950        5.2561600322  W2        6741            0.0000000000
     16337      5446  TIP3      H1              2.0708194676       27.8220951950        5.6356400322  W2        6741            0.0000000000
     16338      5446  TIP3      H2              0.5930894676       27.5113551950        5.5278100322  W2        6741            0.0000000000
     16339      5447  TIP3      OH2             7.1272894676       29.9959551950       10.2453500322  W2        6742            0.0000000000
     16340      5447  TIP3      H1              6.8862894676       30.9213951950       10.2868800322  W2        6742            0.0000000000
     16341      5447  TIP3      H2              6.3866494676       29.5370851950       10.6417400322  W2        6742            0.0000000000
     16342      5448  TIP3      OH2             5.8103694676       35.0177151950        9.7905700322  W2        6744            0.0000000000
     16343      5448  TIP3      H1              4.8604194676       35.1234551950        9.8419000322  W2        6744            0.0000000000
     16344      5448  TIP3      H2              6.1621794676       35.8384551950       10.1353200322  W2        6744            0.0000000000
     16345      5449  TIP3      OH2            13.3889194676       31.1734351950        5.3349200322  W2        6746            0.0000000000
     16346      5449  TIP3      H1             13.7422294676       30.7934151950        6.1392700322  W2        6746            0.0000000000
     16347      5449  TIP3      H2             12.4402694676       31.0799151950        5.4218500322  W2        6746            0.0000000000
     16348      5450  TIP3      OH2            17.8923594676       35.6526851950        5.5359400322  W2        6748            0.0000000000
     16349      5450  TIP3      H1             18.6361494676       36.2387351950        5.3961000322  W2        6748            0.0000000000
     16350      5450  TIP3      H2             17.1981694676       36.2212651950        5.8691800322  W2        6748            0.0000000000
     16351      5451  TIP3      OH2            14.2548494676       29.8456351950        7.5617100322  W2        6750            0.0000000000
     16352      5451  TIP3      H1             13.9776094676       29.1175651950        8.1178200322  W2        6750            0.0000000000
     16353      5451  TIP3      H2             15.1821494676       29.9648351950        7.7669700322  W2        6750            0.0000000000
     16354      5452  TIP3      OH2             7.4796994676       32.2850451950        3.7819200322  W2        6752            0.0000000000
     16355      5452  TIP3      H1              7.7186794676       31.5368551950        3.2348100322  W2        6752            0.0000000000
     16356      5452  TIP3      H2              7.2108294676       31.8972151950        4.6147000322  W2        6752            0.0000000000
     16357      5453  TIP3      OH2             6.4167594676       31.8554251950        6.2381800322  W2        6753            0.0000000000
     16358      5453  TIP3      H1              6.5635594676       31.3354051950        7.0282700322  W2        6753            0.0000000000
     16359      5453  TIP3      H2              6.4139294676       32.7621851950        6.5447700322  W2        6753            0.0000000000
     16360      5454  TIP3      OH2             2.8698694676       29.1077551950        6.7487200322  W2        6754            0.0000000000
     16361      5454  TIP3      H1              2.1837994676       29.4600051950        7.3156900322  W2        6754            0.0000000000
     16362      5454  TIP3      H2              3.3926594676       29.8707151950        6.5021500322  W2        6754            0.0000000000
     16363      5455  TIP3      OH2            11.4858694676       21.4223051950        8.1248500322  W2        6756            0.0000000000
     16364      5455  TIP3      H1             11.7056994676       21.8938451950        7.3213900322  W2        6756            0.0000000000
     16365      5455  TIP3      H2             12.0442694676       21.8165651950        8.7949100322  W2        6756            0.0000000000
     16366      5456  TIP3      OH2             9.1544794676       33.5527851950        6.9876000322  W2        6757            0.0000000000
     16367      5456  TIP3      H1              8.3380894676       34.0497551950        7.0400300322  W2        6757            0.0000000000
     16368      5456  TIP3      H2              9.6841094676       34.0281351950        6.3474800322  W2        6757            0.0000000000
     16369      5457  TIP3      OH2             8.6858594676       23.1501851950        8.9596900322  W2        6758            0.0000000000
     16370      5457  TIP3      H1              9.4981194676       23.6545051950        9.0058600322  W2        6758            0.0000000000
     16371      5457  TIP3      H2              8.4411594676       23.0051551950        9.8736500322  W2        6758            0.0000000000
     16372      5458  TIP3      OH2             9.5695294676       20.2314851950        9.8978000322  W2        6760            0.0000000000
     16373      5458  TIP3      H1              9.2228794676       20.8485451950       10.5422300322  W2        6760            0.0000000000
     16374      5458  TIP3      H2             10.2282194676       20.7320551950        9.4163500322  W2        6760            0.0000000000
     16375      5459  TIP3      OH2             6.4927894676       34.5965051950        6.9692900322  W2        6761            0.0000000000
     16376      5459  TIP3      H1              6.6536594676       35.3962551950        6.4685500322  W2        6761            0.0000000000
     16377      5459  TIP3      H2              6.2955694676       34.9031051950        7.8543500322  W2        6761            0.0000000000
     16378      5460  TIP3      OH2             5.2272294676       21.2944251950        6.5850500322  W2        6762            0.0000000000
     16379      5460  TIP3      H1              5.1437094676       22.1827351950        6.9316900322  W2        6762            0.0000000000
     16380      5460  TIP3      H2              6.1172594676       21.0290951950        6.8167300322  W2        6762            0.0000000000
     16381      5461  TIP3      OH2            14.0281794676       25.7935851950       13.0750500322  W2        6764            0.0000000000
     16382      5461  TIP3      H1             13.2306194676       25.3786051950       12.7465500322  W2        6764            0.0000000000
     16383      5461  TIP3      H2             14.4732894676       25.1029551950       13.5661000322  W2        6764            0.0000000000
     16384      5462  TIP3      OH2             3.4857594676       31.7216451950        5.6455000322  W2        6765            0.0000000000
     16385      5462  TIP3      H1              4.0779094676       32.4211251950        5.9217400322  W2        6765            0.0000000000
     16386      5462  TIP3      H2              3.9450594676       31.2885951950        4.9259600322  W2        6765            0.0000000000
     16387      5463  TIP3      OH2             1.8016794676       24.3859451950        4.7614400322  W2        6766            0.0000000000
     16388      5463  TIP3      H1              1.7569394676       25.3252551950        4.9401400322  W2        6766            0.0000000000
     16389      5463  TIP3      H2              0.9139994676       24.1504351950        4.4916500322  W2        6766            0.0000000000
     16390      5464  TIP3      OH2            15.1146394676       35.0498351950       14.6974000322  W2        6767            0.0000000000
     16391      5464  TIP3      H1             14.9590694676       35.7282751950       14.0403300322  W2        6767            0.0000000000
     16392      5464  TIP3      H2             16.0472794676       35.1217651950       14.9004600322  W2        6767            0.0000000000
     16393      5465  TIP3      OH2             2.6098794676       19.1676051950       13.4345400322  W2        6768            0.0000000000
     16394      5465  TIP3      H1              2.3808594676       19.2268551950       12.5070400322  W2        6768            0.0000000000
     16395      5465  TIP3      H2              2.1672194676       18.3761551950       13.7409500322  W2        6768            0.0000000000
     16396      5466  TIP3      OH2             1.5402094676       33.1083151950        9.5951200322  W2        6769            0.0000000000
     16397      5466  TIP3      H1              0.7080694676       33.5805851950        9.6222600322  W2        6769            0.0000000000
     16398      5466  TIP3      H2              2.0860394676       33.6180751950        8.9964300322  W2        6769            0.0000000000
     16399      5467  TIP3      OH2             9.5178794676       34.1481851950        3.9205200322  W2        6772            0.0000000000
     16400      5467  TIP3      H1              8.8739794676       33.5170451950        4.2418900322  W2        6772            0.0000000000
     16401      5467  TIP3      H2             10.2797094676       33.6169851950        3.6888700322  W2        6772            0.0000000000
     16402      5468  TIP3      OH2            14.1221694676       33.9651751950        4.1543200322  W2        6774            0.0000000000
     16403      5468  TIP3      H1             14.4052094676       33.1706951950        4.6070100322  W2        6774            0.0000000000
     16404      5468  TIP3      H2             14.8619594676       34.1982751950        3.5934300322  W2        6774            0.0000000000
     16405      5469  TIP3      OH2             5.0768994676       29.8746651950        4.0118100322  W2        6776            0.0000000000
     16406      5469  TIP3      H1              5.1413094676       29.0806251950        4.5424500322  W2        6776            0.0000000000
     16407      5469  TIP3      H2              5.7298194676       29.7559451950        3.3220100322  W2        6776            0.0000000000
     16408      5470  TIP3      OH2            10.4292394676       30.9218351950        3.7476100322  W2        6778            0.0000000000
     16409      5470  TIP3      H1             10.1606494676       31.1020451950        4.6485000322  W2        6778            0.0000000000
     16410      5470  TIP3      H2             10.2227994676       29.9964551950        3.6161900322  W2        6778            0.0000000000
     16411      5471  TIP3      OH2             6.2262794676       27.8472851950        6.3176100322  W2        6781            0.0000000000
     16412      5471  TIP3      H1              5.7664794676       27.3631151950        7.0034600322  W2        6781            0.0000000000
     16413      5471  TIP3      H2              6.4811494676       27.1788251950        5.6816600322  W2        6781            0.0000000000
     16414      5472  TIP3      OH2             7.2973194676       26.0904651950        4.5799300322  W2        6783            0.0000000000
     16415      5472  TIP3      H1              7.1168194676       25.9355851950        3.6527600322  W2        6783            0.0000000000
     16416      5472  TIP3      H2              8.2473694676       26.1983351950        4.6247200322  W2        6783            0.0000000000
     16417      5473  TIP3      OH2            16.6871494676       28.4448851950        4.0257400322  W2        6785            0.0000000000
     16418      5473  TIP3      H1             16.4136294676       28.0204351950        3.2125700322  W2        6785            0.0000000000
     16419      5473  TIP3      H2             16.7265594676       29.3763351950        3.8087800322  W2        6785            0.0000000000
     16420      5474  TIP3      OH2             7.1944894676       36.7808351950        5.5812900322  W2        6799            0.0000000000
     16421      5474  TIP3      H1              8.1275594676       36.9387051950        5.7251300322  W2        6799            0.0000000000
     16422      5474  TIP3      H2              6.9303694676       37.4561351950        4.9564400322  W2        6799            0.0000000000
     16423      5475  TIP3      OH2             0.7629794676       31.4172151950        5.0641000322  W2        6800            0.0000000000
     16424      5475  TIP3      H1              1.6768994676       31.4961051950        5.3374900322  W2        6800            0.0000000000
     16425      5475  TIP3      H2              0.7702894676       30.7301751950        4.3976600322  W2        6800            0.0000000000
     16426      5476  TIP3      OH2            -0.5879605324       36.8100651950       10.1414900322  W2        6801            0.0000000000
     16427      5476  TIP3      H1             -1.2352505324       36.3482351950        9.6086100322  W2        6801            0.0000000000
     16428      5476  TIP3      H2             -0.2335005324       36.1383951950       10.7241100322  W2        6801            0.0000000000
     16429      5477  TIP3      OH2             0.2819594676       34.8907651950       11.9461100322  W2        6802            0.0000000000
     16430      5477  TIP3      H1             -0.0523605324       34.0104951950       12.1181300322  W2        6802            0.0000000000
     16431      5477  TIP3      H2              0.5041994676       35.2362651950       12.8106700322  W2        6802            0.0000000000
     16432      5478  TIP3      OH2            17.1454294676       29.3136951950        8.0007800322  W2        6806            0.0000000000
     16433      5478  TIP3      H1             17.9955694676       29.7347851950        8.1279400322  W2        6806            0.0000000000
     16434      5478  TIP3      H2             17.1509394676       28.5737051950        8.6079200322  W2        6806            0.0000000000
     16435      5479  TIP3      OH2            17.5399894676       27.3674351950        9.8243500322  W2        6807            0.0000000000
     16436      5479  TIP3      H1             16.8134494676       26.8876951950       10.2221100322  W2        6807            0.0000000000
     16437      5479  TIP3      H2             18.1213194676       27.5729051950       10.5565100322  W2        6807            0.0000000000
     16438      5480  TIP3      OH2            17.2991094676       30.1521851950       14.7721100322  W2        6808            0.0000000000
     16439      5480  TIP3      H1             18.1325294676       29.7741851950       14.4914700322  W2        6808            0.0000000000
     16440      5480  TIP3      H2             17.4111394676       31.0953051950       14.6530200322  W2        6808            0.0000000000
     16441      5481  TIP3      OH2            17.8082994676       27.2682851950        6.2154800322  W2        6810            0.0000000000
     16442      5481  TIP3      H1             17.2864094676       27.6246951950        5.4965700322  W2        6810            0.0000000000
     16443      5481  TIP3      H2             17.7752194676       27.9430651950        6.8935700322  W2        6810            0.0000000000
     16444      5482  TIP3      OH2            16.1571994676       24.5078451950        4.7661900322  W2        6811            0.0000000000
     16445      5482  TIP3      H1             16.2536394676       25.1745451950        4.0861600322  W2        6811            0.0000000000
     16446      5482  TIP3      H2             16.0171594676       23.6924751950        4.2847400322  W2        6811            0.0000000000
     16447      5483  TIP3      OH2            15.3266694676       25.8880851950       10.3872200322  W2        6812            0.0000000000
     16448      5483  TIP3      H1             15.1765494676       24.9429451950       10.3670000322  W2        6812            0.0000000000
     16449      5483  TIP3      H2             14.9731194676       26.1692251950       11.2311300322  W2        6812            0.0000000000
     16450      5484  TIP3      OH2             0.3619094676       27.9663051950       14.3976000322  W2        6813            0.0000000000
     16451      5484  TIP3      H1              0.5461994676       27.8844751950       13.4618900322  W2        6813            0.0000000000
     16452      5484  TIP3      H2              1.2111994676       27.8420051950       14.8212400322  W2        6813            0.0000000000
     16453      5485  TIP3      OH2            15.4045794676       21.9158251950        3.8837400322  W2        6816            0.0000000000
     16454      5485  TIP3      H1             16.0151594676       21.5445051950        4.5205600322  W2        6816            0.0000000000
     16455      5485  TIP3      H2             14.5677294676       21.4945151950        4.0797400322  W2        6816            0.0000000000
     16456      5486  TIP3      OH2            15.0371494676       23.4706651950        8.8497300322  W2        6817            0.0000000000
     16457      5486  TIP3      H1             15.3168594676       22.5637051950        8.9739000322  W2        6817            0.0000000000
     16458      5486  TIP3      H2             15.7963194676       23.9048151950        8.4606500322  W2        6817            0.0000000000
     16459      5487  TIP3      OH2            15.6489794676       24.0524051950       14.2856200322  W2        6818            0.0000000000
     16460      5487  TIP3      H1             16.5817794676       24.2643951950       14.2512200322  W2        6818            0.0000000000
     16461      5487  TIP3      H2             15.4137294676       24.1536151950       15.2079200322  W2        6818            0.0000000000
     16462      5488  TIP3      OH2            15.6506294676       20.7335951950        8.8979300322  W2        6822            0.0000000000
     16463      5488  TIP3      H1             15.8331294676       20.2847451950        9.7234300322  W2        6822            0.0000000000
     16464      5488  TIP3      H2             15.0509194676       20.1490351950        8.4343900322  W2        6822            0.0000000000
     16465      5489  TIP3      OH2             1.1806394676       21.5489651950       13.4297700322  W2        6823            0.0000000000
     16466      5489  TIP3      H1              1.6257994676       20.7572151950       13.7317400322  W2        6823            0.0000000000
     16467      5489  TIP3      H2              1.6469394676       22.2654851950       13.8603300322  W2        6823            0.0000000000
     16468      5490  TIP3      OH2            -0.5153305324       24.5482651950       14.4987900322  W2        6824            0.0000000000
     16469      5490  TIP3      H1             -0.0233505324       24.3273151950       13.7079900322  W2        6824            0.0000000000
     16470      5490  TIP3      H2             -0.1532405324       25.3886051950       14.7797400322  W2        6824            0.0000000000
     16471      5491  TIP3      OH2            17.5172494676       20.8014051950        5.4259600322  W2        6826            0.0000000000
     16472      5491  TIP3      H1             17.9295094676       20.0799751950        4.9507600322  W2        6826            0.0000000000
     16473      5491  TIP3      H2             18.1988994676       21.4708651950        5.4843900322  W2        6826            0.0000000000
     16474      5492  TIP3      OH2            -0.2016805324       20.8061751950        8.5530300322  W2        6827            0.0000000000
     16475      5492  TIP3      H1             -1.1268405324       21.0148351950        8.4235800322  W2        6827            0.0000000000
     16476      5492  TIP3      H2              0.2523094676       21.2902551950        7.8632600322  W2        6827            0.0000000000
     16477      5493  TIP3      OH2            14.5690394676       35.7903451950       10.4987700322  W2        6828            0.0000000000
     16478      5493  TIP3      H1             15.2213294676       35.4425551950        9.8906800322  W2        6828            0.0000000000
     16479      5493  TIP3      H2             15.0794194676       36.2786651950       11.1447400322  W2        6828            0.0000000000
     16480      5494  TIP3      OH2             1.7245594676       35.5732451950       14.2579700322  W2        6840            0.0000000000
     16481      5494  TIP3      H1              1.7061594676       35.1477551950       15.1152000322  W2        6840            0.0000000000
     16482      5494  TIP3      H2              2.5293494676       35.2547451950       13.8491900322  W2        6840            0.0000000000
     16483      5495  TIP3      OH2             3.8658694676       34.2831151950       12.9129600322  W2        6841            0.0000000000
     16484      5495  TIP3      H1              3.6469394676       33.3668551950       13.0825600322  W2        6841            0.0000000000
     16485      5495  TIP3      H2              4.6900894676       34.4231551950       13.3791000322  W2        6841            0.0000000000
     16486      5496  TIP3      OH2             6.4031194676       34.7530451950       13.7617600322  W2        6842            0.0000000000
     16487      5496  TIP3      H1              6.6156894676       33.8649451950       13.4748500322  W2        6842            0.0000000000
     16488      5496  TIP3      H2              6.4676294676       34.7188151950       14.7161600322  W2        6842            0.0000000000
     16489      5497  TIP3      OH2             9.9114894676       20.4171051950       12.9060900322  W2        6843            0.0000000000
     16490      5497  TIP3      H1              9.2371694676       19.7876651950       13.1616700322  W2        6843            0.0000000000
     16491      5497  TIP3      H2             10.4754094676       19.9329951950       12.3028800322  W2        6843            0.0000000000
     16492      5498  TIP3      OH2            15.0542094676       18.5245051950       13.0188000322  W2        6844            0.0000000000
     16493      5498  TIP3      H1             15.6579694676       19.0720451950       12.5169000322  W2        6844            0.0000000000
     16494      5498  TIP3      H2             14.1844094676       18.8435451950       12.7782100322  W2        6844            0.0000000000
     16495      5499  TIP3      OH2            16.7812494676       19.6633751950       11.3518900322  W2        6845            0.0000000000
     16496      5499  TIP3      H1             17.3929994676       19.1489451950       10.8252500322  W2        6845            0.0000000000
     16497      5499  TIP3      H2             17.1635894676       20.5405851950       11.3753300322  W2        6845            0.0000000000
     16498      5500  TIP3      OH2             2.2382394676       19.0511351950       10.7280800322  W2        6846            0.0000000000
     16499      5500  TIP3      H1              1.4612194676       18.8166251950       10.2206700322  W2        6846            0.0000000000
     16500      5500  TIP3      H2              2.7685994676       18.2543451950       10.7368800322  W2        6846            0.0000000000
     16501      5501  TIP3      OH2             1.0745794676       18.8489451950        6.5316900322  W2        6847            0.0000000000
     16502      5501  TIP3      H1              1.5136494676       19.4599951950        5.9400400322  W2        6847            0.0000000000
     16503      5501  TIP3      H2              0.4408194676       19.3873551950        7.0056900322  W2        6847            0.0000000000
     16504      5502  TIP3      OH2             6.8174994676       18.9778451950       10.5413900322  W2        6848            0.0000000000
     16505      5502  TIP3      H1              7.6918394676       19.3662751950       10.5118200322  W2        6848            0.0000000000
     16506      5502  TIP3      H2              6.6815794676       18.7626251950       11.4641100322  W2        6848            0.0000000000
     16507      5503  TIP3      OH2            12.3743394676       19.0078251950       12.1905600322  W2        6849            0.0000000000
     16508      5503  TIP3      H1             12.4504994676       19.1029851950       11.2411600322  W2        6849            0.0000000000
     16509      5503  TIP3      H2             12.0992594676       18.1001151950       12.3194700322  W2        6849            0.0000000000
     16510      5504  TIP3      OH2            13.7275994676       19.0336051950        7.8830600322  W2        6850            0.0000000000
     16511      5504  TIP3      H1             13.0247094676       19.6485251950        7.6732000322  W2        6850            0.0000000000
     16512      5504  TIP3      H2             13.2827394676       18.1962751950        8.0141500322  W2        6850            0.0000000000
     16513      5505  TIP3      OH2             0.9755294676       34.7971651950        7.4292000322  W2        6851            0.0000000000
     16514      5505  TIP3      H1              0.2905194676       34.7590551950        6.7617100322  W2        6851            0.0000000000
     16515      5505  TIP3      H2              0.9792494676       35.7099251950        7.7174100322  W2        6851            0.0000000000
     16516      5506  TIP3      OH2             2.9354894676       20.7650951950        4.9741000322  W2        6852            0.0000000000
     16517      5506  TIP3      H1              3.4268294676       20.1353351950        4.4466500322  W2        6852            0.0000000000
     16518      5506  TIP3      H2              3.5591194676       21.0610351950        5.6372200322  W2        6852            0.0000000000
     16519      5507  TIP3      OH2             7.9614994676       21.0582451950        7.4311500322  W2        6853            0.0000000000
     16520      5507  TIP3      H1              8.1396294676       20.4115651950        8.1140100322  W2        6853            0.0000000000
     16521      5507  TIP3      H2              7.9081194676       21.8920151950        7.8982600322  W2        6853            0.0000000000
     16522      5508  TIP3      OH2             9.8398794676       36.0066551950        5.8268200322  W2        6854            0.0000000000
     16523      5508  TIP3      H1             10.7058994676       36.3733951950        5.6486400322  W2        6854            0.0000000000
     16524      5508  TIP3      H2              9.5931594676       35.5674551950        5.0129000322  W2        6854            0.0000000000
     16525      5509  TIP3      OH2            16.5488394676       35.5696851950        8.5059300322  W2        6855            0.0000000000
     16526      5509  TIP3      H1             16.3545494676       34.8218951950        7.9408900322  W2        6855            0.0000000000
     16527      5509  TIP3      H2             16.5098494676       36.3276951950        7.9227200322  W2        6855            0.0000000000
     16528      5510  TIP3      OH2             2.7936494676       35.7172451950        4.4544100322  W2        6858            0.0000000000
     16529      5510  TIP3      H1              2.5261094676       36.0035351950        5.3277200322  W2        6858            0.0000000000
     16530      5510  TIP3      H2              3.5649094676       35.1711651950        4.6066600322  W2        6858            0.0000000000
     16531      5511  TIP3      OH2            30.1724994676       28.2073651950       10.6868300322  W2        6861            0.0000000000
     16532      5511  TIP3      H1             30.2616094676       29.1511851950       10.5545400322  W2        6861            0.0000000000
     16533      5511  TIP3      H2             29.5342594676       27.9320051950       10.0287700322  W2        6861            0.0000000000
     16534      5512  TIP3      OH2            29.1056294676       27.4624351950       14.1056500322  W2        6862            0.0000000000
     16535      5512  TIP3      H1             29.0673794676       26.8160651950       14.8106100322  W2        6862            0.0000000000
     16536      5512  TIP3      H2             28.7832794676       26.9958751950       13.3345200322  W2        6862            0.0000000000
     16537      5513  TIP3      OH2            32.8116494676       30.4014751950       12.4071600322  W2        6864            0.0000000000
     16538      5513  TIP3      H1             32.3709194676       29.6810751950       12.8577200322  W2        6864            0.0000000000
     16539      5513  TIP3      H2             32.7986194676       31.1221951950       13.0369300322  W2        6864            0.0000000000
     16540      5514  TIP3      OH2            22.3974394676       31.5265351950       14.2335500322  W2        6865            0.0000000000
     16541      5514  TIP3      H1             22.0279594676       30.7245851950       13.8639800322  W2        6865            0.0000000000
     16542      5514  TIP3      H2             23.3385494676       31.3580251950       14.2798900322  W2        6865            0.0000000000
     16543      5515  TIP3      OH2            19.0074894676       25.1867951950        9.6264300322  W2        6866            0.0000000000
     16544      5515  TIP3      H1             18.5598294676       26.0326651950        9.6080800322  W2        6866            0.0000000000
     16545      5515  TIP3      H2             18.4466094676       24.6072151950        9.1109400322  W2        6866            0.0000000000
     16546      5516  TIP3      OH2            19.7180994676       27.3487551950       11.7522300322  W2        6867            0.0000000000
     16547      5516  TIP3      H1             19.9314494676       26.5789151950       12.2795300322  W2        6867            0.0000000000
     16548      5516  TIP3      H2             20.4558594676       27.4384251950       11.1489900322  W2        6867            0.0000000000
     16549      5517  TIP3      OH2            29.9231994676       35.5056451950       12.6192000322  W2        6868            0.0000000000
     16550      5517  TIP3      H1             30.5428394676       34.8291151950       12.3461200322  W2        6868            0.0000000000
     16551      5517  TIP3      H2             29.7149394676       35.2877251950       13.5276900322  W2        6868            0.0000000000
     16552      5518  TIP3      OH2            27.4950694676       29.8945751950       14.5117500322  W2        6869            0.0000000000
     16553      5518  TIP3      H1             27.7988594676       29.2087151950       13.9171600322  W2        6869            0.0000000000
     16554      5518  TIP3      H2             28.2164694676       30.0134451950       15.1295500322  W2        6869            0.0000000000
     16555      5519  TIP3      OH2            30.6357694676       24.2888151950       14.8392300322  W2        6871            0.0000000000
     16556      5519  TIP3      H1             30.7783594676       23.3425151950       14.8593900322  W2        6871            0.0000000000
     16557      5519  TIP3      H2             30.5296694676       24.4957951950       13.9107200322  W2        6871            0.0000000000
     16558      5520  TIP3      OH2            23.7905994676       22.3904551950       12.1117100322  W2        6872            0.0000000000
     16559      5520  TIP3      H1             23.8337094676       23.2503051950       11.6933400322  W2        6872            0.0000000000
     16560      5520  TIP3      H2             23.3330094676       21.8379251950       11.4780300322  W2        6872            0.0000000000
     16561      5521  TIP3      OH2            31.5128694676       22.5210151950       10.5125400322  W2        6873            0.0000000000
     16562      5521  TIP3      H1             32.1592994676       22.1923351950       11.1373000322  W2        6873            0.0000000000
     16563      5521  TIP3      H2             32.0228094676       23.0389151950        9.8896800322  W2        6873            0.0000000000
     16564      5522  TIP3      OH2            20.4107494676       24.7870351950       12.8738500322  W2        6874            0.0000000000
     16565      5522  TIP3      H1             21.0644094676       24.2372051950       13.3058600322  W2        6874            0.0000000000
     16566      5522  TIP3      H2             20.4346794676       24.5129351950       11.9570500322  W2        6874            0.0000000000
     16567      5523  TIP3      OH2            25.5671994676       26.3371651950       12.0890000322  W2        6875            0.0000000000
     16568      5523  TIP3      H1             26.1832994676       25.8107051950       12.5984000322  W2        6875            0.0000000000
     16569      5523  TIP3      H2             24.9810794676       25.6970351950       11.6853600322  W2        6875            0.0000000000
     16570      5524  TIP3      OH2            29.9697694676       30.8084051950        9.7297000322  W2        6878            0.0000000000
     16571      5524  TIP3      H1             29.6742794676       30.4856351950        8.8783900322  W2        6878            0.0000000000
     16572      5524  TIP3      H2             29.6455494676       31.7080751950        9.7709600322  W2        6878            0.0000000000
     16573      5525  TIP3      OH2            33.2767094676       21.8119451950       12.4931300322  W2        6880            0.0000000000
     16574      5525  TIP3      H1             33.0615094676       21.0462851950       13.0257300322  W2        6880            0.0000000000
     16575      5525  TIP3      H2             33.9324494676       22.2844051950       13.0059800322  W2        6880            0.0000000000
     16576      5526  TIP3      OH2            22.1945194676       23.2004751950       14.1380100322  W2        6881            0.0000000000
     16577      5526  TIP3      H1             22.8081494676       23.8332351950       14.5112500322  W2        6881            0.0000000000
     16578      5526  TIP3      H2             22.7065894676       22.7279751950       13.4817000322  W2        6881            0.0000000000
     16579      5527  TIP3      OH2            19.6984494676       30.6189551950        8.0422400322  W2        6883            0.0000000000
     16580      5527  TIP3      H1             19.4265394676       30.8480551950        7.1535300322  W2        6883            0.0000000000
     16581      5527  TIP3      H2             19.7440194676       31.4568351950        8.5027700322  W2        6883            0.0000000000
     16582      5528  TIP3      OH2            33.3234194676       32.2405451950       14.7550900322  W2        6884            0.0000000000
     16583      5528  TIP3      H1             32.3817894676       32.2989351950       14.9167800322  W2        6884            0.0000000000
     16584      5528  TIP3      H2             33.6000294676       33.1465951950       14.6180600322  W2        6884            0.0000000000
     16585      5529  TIP3      OH2            26.6272594676       18.6138051950       13.6382800322  W2        6886            0.0000000000
     16586      5529  TIP3      H1             26.5096794676       17.6654051950       13.5841100322  W2        6886            0.0000000000
     16587      5529  TIP3      H2             25.7722694676       18.9464151950       13.9113900322  W2        6886            0.0000000000
     16588      5530  TIP3      OH2            31.5755394676       34.0218951950       11.3802500322  W2        6887            0.0000000000
     16589      5530  TIP3      H1             32.0007694676       33.3146851950       10.8952100322  W2        6887            0.0000000000
     16590      5530  TIP3      H2             31.8925394676       34.8231651950       10.9634700322  W2        6887            0.0000000000
     16591      5531  TIP3      OH2            32.7351894676       31.9227451950        9.8889100322  W2        6888            0.0000000000
     16592      5531  TIP3      H1             32.4776694676       31.2327551950        9.2775000322  W2        6888            0.0000000000
     16593      5531  TIP3      H2             32.8062694676       31.4798651950       10.7345000322  W2        6888            0.0000000000
     16594      5532  TIP3      OH2            28.8937494676       27.4513651950        8.1388600322  W2        6890            0.0000000000
     16595      5532  TIP3      H1             28.1822994676       27.9863351950        7.7869100322  W2        6890            0.0000000000
     16596      5532  TIP3      H2             29.5847094676       27.5065751950        7.4787500322  W2        6890            0.0000000000
     16597      5533  TIP3      OH2            28.9476694676       25.9087951950        5.1773600322  W2        6891            0.0000000000
     16598      5533  TIP3      H1             29.6486594676       25.9314851950        5.8287600322  W2        6891            0.0000000000
     16599      5533  TIP3      H2             29.2499594676       25.2807651950        4.5212900322  W2        6891            0.0000000000
     16600      5534  TIP3      OH2            32.2995194676       27.6606951950        9.0904500322  W2        6893            0.0000000000
     16601      5534  TIP3      H1             31.5676194676       27.8890651950        9.6635100322  W2        6893            0.0000000000
     16602      5534  TIP3      H2             32.7467394676       26.9469651950        9.5452000322  W2        6893            0.0000000000
     16603      5535  TIP3      OH2            23.9448894676       28.2913151950       10.9729500322  W2        6895            0.0000000000
     16604      5535  TIP3      H1             23.6144094676       27.9206551950       10.1546500322  W2        6895            0.0000000000
     16605      5535  TIP3      H2             24.5332994676       27.6207151950       11.3197800322  W2        6895            0.0000000000
     16606      5536  TIP3      OH2            25.3116394676       31.7193751950       13.6541700322  W2        6896            0.0000000000
     16607      5536  TIP3      H1             25.2167694676       31.1406851950       12.8976300322  W2        6896            0.0000000000
     16608      5536  TIP3      H2             26.0409994676       31.3479451950       14.1504500322  W2        6896            0.0000000000
     16609      5537  TIP3      OH2            24.3114394676       27.0598751950       14.6064500322  W2        6897            0.0000000000
     16610      5537  TIP3      H1             24.8766894676       27.1812951950       13.8435700322  W2        6897            0.0000000000
     16611      5537  TIP3      H2             24.6303294676       27.6973751950       15.2453000322  W2        6897            0.0000000000
     16612      5538  TIP3      OH2            31.1704694676       26.8229851950        6.7755700322  W2        6900            0.0000000000
     16613      5538  TIP3      H1             31.7500194676       26.9730151950        7.5224600322  W2        6900            0.0000000000
     16614      5538  TIP3      H2             31.5844694676       27.2937251950        6.0522100322  W2        6900            0.0000000000
     16615      5539  TIP3      OH2            28.8969594676       33.5598351950       10.2108800322  W2        6902            0.0000000000
     16616      5539  TIP3      H1             29.3707194676       33.8554651950       10.9883000322  W2        6902            0.0000000000
     16617      5539  TIP3      H2             28.3338894676       34.2979951950        9.9778400322  W2        6902            0.0000000000
     16618      5540  TIP3      OH2            34.8693094676       18.5730251950        6.5885400322  W2        6904            0.0000000000
     16619      5540  TIP3      H1             33.9693794676       18.7119251950        6.8836000322  W2        6904            0.0000000000
     16620      5540  TIP3      H2             35.1211494676       19.4044851950        6.1867100322  W2        6904            0.0000000000
     16621      5541  TIP3      OH2            22.9351594676       27.3607451950        8.5622300322  W2        6905            0.0000000000
     16622      5541  TIP3      H1             22.6432894676       28.1289151950        8.0713600322  W2        6905            0.0000000000
     16623      5541  TIP3      H2             22.2606794676       26.7013651950        8.3993700322  W2        6905            0.0000000000
     16624      5542  TIP3      OH2            36.0584494676       32.9392651950        4.9649300322  W2        6906            0.0000000000
     16625      5542  TIP3      H1             36.1317994676       33.8782851950        5.1354600322  W2        6906            0.0000000000
     16626      5542  TIP3      H2             36.9639594676       32.6341251950        4.9086600322  W2        6906            0.0000000000
     16627      5543  TIP3      OH2            18.7784394676       32.5040451950       14.2612300322  W2        6908            0.0000000000
     16628      5543  TIP3      H1             19.7244994676       32.3597451950       14.2421800322  W2        6908            0.0000000000
     16629      5543  TIP3      H2             18.6660694676       33.2883251950       14.7983500322  W2        6908            0.0000000000
     16630      5544  TIP3      OH2            28.3692694676       36.5163051950        8.6258000322  W2        6911            0.0000000000
     16631      5544  TIP3      H1             28.2938694676       36.3950251950        7.6793200322  W2        6911            0.0000000000
     16632      5544  TIP3      H2             28.4021394676       37.4655751950        8.7442600322  W2        6911            0.0000000000
     16633      5545  TIP3      OH2            22.0226494676       35.3050051950       10.4067000322  W2        6912            0.0000000000
     16634      5545  TIP3      H1             22.1746894676       34.9570451950       11.2853500322  W2        6912            0.0000000000
     16635      5545  TIP3      H2             21.1716894676       34.9487351950       10.1514200322  W2        6912            0.0000000000
     16636      5546  TIP3      OH2            31.4708694676       35.6703251950        5.6280400322  W2        6913            0.0000000000
     16637      5546  TIP3      H1             31.8457094676       34.9259351950        5.1573000322  W2        6913            0.0000000000
     16638      5546  TIP3      H2             31.4752394676       35.4003851950        6.5463700322  W2        6913            0.0000000000
     16639      5547  TIP3      OH2            31.1396794676       35.5960351950        8.3772600322  W2        6914            0.0000000000
     16640      5547  TIP3      H1             30.2046594676       35.6962251950        8.5559600322  W2        6914            0.0000000000
     16641      5547  TIP3      H2             31.4198694676       34.8866351950        8.9555800322  W2        6914            0.0000000000
     16642      5548  TIP3      OH2            23.8960194676       19.5172551950       14.4159100322  W2        6917            0.0000000000
     16643      5548  TIP3      H1             23.0343894676       19.4300751950       14.0082000322  W2        6917            0.0000000000
     16644      5548  TIP3      H2             23.8735894676       20.3732651950       14.8436700322  W2        6917            0.0000000000
     16645      5549  TIP3      OH2            32.6477794676       27.8558151950        4.4053600322  W2        6920            0.0000000000
     16646      5549  TIP3      H1             32.6898594676       27.6332051950        3.4753600322  W2        6920            0.0000000000
     16647      5549  TIP3      H2             33.4969894676       28.2545251950        4.5953500322  W2        6920            0.0000000000
     16648      5550  TIP3      OH2            28.2205294676       21.7316351950        5.0756900322  W2        6921            0.0000000000
     16649      5550  TIP3      H1             27.9670094676       21.7507951950        5.9985000322  W2        6921            0.0000000000
     16650      5550  TIP3      H2             27.9637394676       20.8601751950        4.7743100322  W2        6921            0.0000000000
     16651      5551  TIP3      OH2            23.9839394676       24.7037151950       10.4229300322  W2        6923            0.0000000000
     16652      5551  TIP3      H1             23.0912294676       24.3633251950       10.3643100322  W2        6923            0.0000000000
     16653      5551  TIP3      H2             24.4345994676       24.3268051950        9.6672500322  W2        6923            0.0000000000
     16654      5552  TIP3      OH2            29.5194894676       25.1197451950        9.2400100322  W2        6924            0.0000000000
     16655      5552  TIP3      H1             29.1105194676       25.9346051950        8.9484900322  W2        6924            0.0000000000
     16656      5552  TIP3      H2             30.2401094676       24.9797551950        8.6257200322  W2        6924            0.0000000000
     16657      5553  TIP3      OH2            30.5242594676       24.5657851950       12.0539800322  W2        6926            0.0000000000
     16658      5553  TIP3      H1             30.3287094676       25.1714651950       11.3390400322  W2        6926            0.0000000000
     16659      5553  TIP3      H2             30.7055194676       23.7323051950       11.6196100322  W2        6926            0.0000000000
     16660      5554  TIP3      OH2            25.1028194676       22.1772851950        4.1767300322  W2        6928            0.0000000000
     16661      5554  TIP3      H1             24.6718894676       21.7322951950        4.9064700322  W2        6928            0.0000000000
     16662      5554  TIP3      H2             24.3846894676       22.5489151950        3.6644800322  W2        6928            0.0000000000
     16663      5555  TIP3      OH2            18.3451594676       21.9192351950       11.2286000322  W2        6929            0.0000000000
     16664      5555  TIP3      H1             18.9759294676       21.8904451950       11.9479900322  W2        6929            0.0000000000
     16665      5555  TIP3      H2             18.7945894676       21.4941051950       10.4981900322  W2        6929            0.0000000000
     16666      5556  TIP3      OH2            19.6193694676       22.6654351950        6.6526400322  W2        6930            0.0000000000
     16667      5556  TIP3      H1             20.0935394676       23.2564251950        6.0677300322  W2        6930            0.0000000000
     16668      5556  TIP3      H2             18.9020094676       23.1957251950        6.9996500322  W2        6930            0.0000000000
     16669      5557  TIP3      OH2            26.5654694676       22.1314651950       11.5093400322  W2        6932            0.0000000000
     16670      5557  TIP3      H1             25.6545794676       22.1881451950       11.7979400322  W2        6932            0.0000000000
     16671      5557  TIP3      H2             27.0707594676       22.0710151950       12.3200600322  W2        6932            0.0000000000
     16672      5558  TIP3      OH2            21.3938094676       23.7600951950       10.3361000322  W2        6933            0.0000000000
     16673      5558  TIP3      H1             20.5046094676       23.8596451950        9.9960600322  W2        6933            0.0000000000
     16674      5558  TIP3      H2             21.6902994676       22.9183951950        9.9898900322  W2        6933            0.0000000000
     16675      5559  TIP3      OH2            25.0469894676       23.7603551950        7.9925600322  W2        6934            0.0000000000
     16676      5559  TIP3      H1             25.9785394676       23.8893551950        8.1708700322  W2        6934            0.0000000000
     16677      5559  TIP3      H2             24.8320194676       24.4297851950        7.3430300322  W2        6934            0.0000000000
     16678      5560  TIP3      OH2            30.9706594676       21.3660951950       14.7735200322  W2        6935            0.0000000000
     16679      5560  TIP3      H1             30.2938194676       21.4974051950       15.4374900322  W2        6935            0.0000000000
     16680      5560  TIP3      H2             30.4851494676       21.2110451950       13.9632900322  W2        6935            0.0000000000
     16681      5561  TIP3      OH2            23.7210094676       24.9545751950        5.5591700322  W2        6936            0.0000000000
     16682      5561  TIP3      H1             23.1785194676       24.5749551950        4.8679300322  W2        6936            0.0000000000
     16683      5561  TIP3      H2             24.5544994676       25.1490451950        5.1305800322  W2        6936            0.0000000000
     16684      5562  TIP3      OH2            27.8854394676       24.9187651950       13.3963000322  W2        6939            0.0000000000
     16685      5562  TIP3      H1             28.4497794676       24.3724251950       12.8492600322  W2        6939            0.0000000000
     16686      5562  TIP3      H2             27.7377794676       24.3969551950       14.1850600322  W2        6939            0.0000000000
     16687      5563  TIP3      OH2            22.8874094676       21.0553751950        9.8147800322  W2        6940            0.0000000000
     16688      5563  TIP3      H1             22.5703594676       20.1529051950        9.7793200322  W2        6940            0.0000000000
     16689      5563  TIP3      H2             23.6688194676       21.0571151950        9.2619400322  W2        6940            0.0000000000
     16690      5564  TIP3      OH2            27.0562894676       29.5201451950        7.4949800322  W2        6942            0.0000000000
     16691      5564  TIP3      H1             26.3113894676       29.0126751950        7.1727700322  W2        6942            0.0000000000
     16692      5564  TIP3      H2             26.9220094676       29.5689451950        8.4414600322  W2        6942            0.0000000000
     16693      5565  TIP3      OH2            30.9539694676       22.3341351950        5.6942400322  W2        6944            0.0000000000
     16694      5565  TIP3      H1             30.0153894676       22.4456951950        5.5431200322  W2        6944            0.0000000000
     16695      5565  TIP3      H2             31.2511794676       23.1908251950        6.0008100322  W2        6944            0.0000000000
     16696      5566  TIP3      OH2            31.6723194676       24.2014051950        7.3549800322  W2        6946            0.0000000000
     16697      5566  TIP3      H1             32.5642194676       24.0639051950        7.6741000322  W2        6946            0.0000000000
     16698      5566  TIP3      H2             31.7286794676       24.9920151950        6.8183300322  W2        6946            0.0000000000
     16699      5567  TIP3      OH2            22.1811194676       28.8151451950       13.2647700322  W2        6947            0.0000000000
     16700      5567  TIP3      H1             22.9258394676       28.8127151950       12.6634200322  W2        6947            0.0000000000
     16701      5567  TIP3      H2             22.2587794676       27.9915251950       13.7462800322  W2        6947            0.0000000000
     16702      5568  TIP3      OH2            29.1816994676       30.9785751950        6.5204400322  W2        6948            0.0000000000
     16703      5568  TIP3      H1             28.8865394676       31.8053651950        6.9019200322  W2        6948            0.0000000000
     16704      5568  TIP3      H2             28.4786994676       30.3592651950        6.7165800322  W2        6948            0.0000000000
     16705      5569  TIP3      OH2            36.5571894676       24.4108151950        7.0496500322  W2        6952            0.0000000000
     16706      5569  TIP3      H1             36.0028194676       24.0146151950        6.3774000322  W2        6952            0.0000000000
     16707      5569  TIP3      H2             36.6575494676       25.3213351950        6.7719800322  W2        6952            0.0000000000
     16708      5570  TIP3      OH2            34.8523594676       33.1968551950        7.5148600322  W2        6954            0.0000000000
     16709      5570  TIP3      H1             34.4794694676       32.3712351950        7.8239200322  W2        6954            0.0000000000
     16710      5570  TIP3      H2             35.1297094676       33.0137951950        6.6172000322  W2        6954            0.0000000000
     16711      5571  TIP3      OH2            32.0127494676       28.0048051950       14.5360500322  W2        6955            0.0000000000
     16712      5571  TIP3      H1             31.0844394676       27.7729951950       14.5089800322  W2        6955            0.0000000000
     16713      5571  TIP3      H2             32.4638594676       27.2277851950       14.2059300322  W2        6955            0.0000000000
     16714      5572  TIP3      OH2            24.5560594676       32.3329651950       10.6689200322  W2        6956            0.0000000000
     16715      5572  TIP3      H1             25.0832794676       33.1064051950       10.4688000322  W2        6956            0.0000000000
     16716      5572  TIP3      H2             23.6759094676       32.5578851950       10.3673200322  W2        6956            0.0000000000
     16717      5573  TIP3      OH2            20.3108294676       27.1953751950        5.2561600322  W2        6957            0.0000000000
     16718      5573  TIP3      H1             20.9268194676       27.8220951950        5.6356400322  W2        6957            0.0000000000
     16719      5573  TIP3      H2             19.4490894676       27.5113551950        5.5278100322  W2        6957            0.0000000000
     16720      5574  TIP3      OH2            25.9832894676       29.9959551950       10.2453500322  W2        6958            0.0000000000
     16721      5574  TIP3      H1             25.7422894676       30.9213951950       10.2868800322  W2        6958            0.0000000000
     16722      5574  TIP3      H2             25.2426494676       29.5370851950       10.6417400322  W2        6958            0.0000000000
     16723      5575  TIP3      OH2            24.6663694676       35.0177151950        9.7905700322  W2        6960            0.0000000000
     16724      5575  TIP3      H1             23.7164194676       35.1234551950        9.8419000322  W2        6960            0.0000000000
     16725      5575  TIP3      H2             25.0181794676       35.8384551950       10.1353200322  W2        6960            0.0000000000
     16726      5576  TIP3      OH2            32.2449194676       31.1734351950        5.3349200322  W2        6962            0.0000000000
     16727      5576  TIP3      H1             32.5982294676       30.7934151950        6.1392700322  W2        6962            0.0000000000
     16728      5576  TIP3      H2             31.2962694676       31.0799151950        5.4218500322  W2        6962            0.0000000000
     16729      5577  TIP3      OH2            36.7483594676       35.6526851950        5.5359400322  W2        6964            0.0000000000
     16730      5577  TIP3      H1             37.4921494676       36.2387351950        5.3961000322  W2        6964            0.0000000000
     16731      5577  TIP3      H2             36.0541694676       36.2212651950        5.8691800322  W2        6964            0.0000000000
     16732      5578  TIP3      OH2            33.1108494676       29.8456351950        7.5617100322  W2        6966            0.0000000000
     16733      5578  TIP3      H1             32.8336094676       29.1175651950        8.1178200322  W2        6966            0.0000000000
     16734      5578  TIP3      H2             34.0381494676       29.9648351950        7.7669700322  W2        6966            0.0000000000
     16735      5579  TIP3      OH2            26.3356994676       32.2850451950        3.7819200322  W2        6968            0.0000000000
     16736      5579  TIP3      H1             26.5746794676       31.5368551950        3.2348100322  W2        6968            0.0000000000
     16737      5579  TIP3      H2             26.0668294676       31.8972151950        4.6147000322  W2        6968            0.0000000000
     16738      5580  TIP3      OH2            25.2727594676       31.8554251950        6.2381800322  W2        6969            0.0000000000
     16739      5580  TIP3      H1             25.4195594676       31.3354051950        7.0282700322  W2        6969            0.0000000000
     16740      5580  TIP3      H2             25.2699294676       32.7621851950        6.5447700322  W2        6969            0.0000000000
     16741      5581  TIP3      OH2            21.7258694676       29.1077551950        6.7487200322  W2        6970            0.0000000000
     16742      5581  TIP3      H1             21.0397994676       29.4600051950        7.3156900322  W2        6970            0.0000000000
     16743      5581  TIP3      H2             22.2486594676       29.8707151950        6.5021500322  W2        6970            0.0000000000
     16744      5582  TIP3      OH2            30.3418694676       21.4223051950        8.1248500322  W2        6972            0.0000000000
     16745      5582  TIP3      H1             30.5616994676       21.8938451950        7.3213900322  W2        6972            0.0000000000
     16746      5582  TIP3      H2             30.9002694676       21.8165651950        8.7949100322  W2        6972            0.0000000000
     16747      5583  TIP3      OH2            28.0104794676       33.5527851950        6.9876000322  W2        6973            0.0000000000
     16748      5583  TIP3      H1             27.1940894676       34.0497551950        7.0400300322  W2        6973            0.0000000000
     16749      5583  TIP3      H2             28.5401094676       34.0281351950        6.3474800322  W2        6973            0.0000000000
     16750      5584  TIP3      OH2            27.5418594676       23.1501851950        8.9596900322  W2        6974            0.0000000000
     16751      5584  TIP3      H1             28.3541194676       23.6545051950        9.0058600322  W2        6974            0.0000000000
     16752      5584  TIP3      H2             27.2971594676       23.0051551950        9.8736500322  W2        6974            0.0000000000
     16753      5585  TIP3      OH2            28.4255294676       20.2314851950        9.8978000322  W2        6976            0.0000000000
     16754      5585  TIP3      H1             28.0788794676       20.8485451950       10.5422300322  W2        6976            0.0000000000
     16755      5585  TIP3      H2             29.0842194676       20.7320551950        9.4163500322  W2        6976            0.0000000000
     16756      5586  TIP3      OH2            25.3487894676       34.5965051950        6.9692900322  W2        6977            0.0000000000
     16757      5586  TIP3      H1             25.5096594676       35.3962551950        6.4685500322  W2        6977            0.0000000000
     16758      5586  TIP3      H2             25.1515694676       34.9031051950        7.8543500322  W2        6977            0.0000000000
     16759      5587  TIP3      OH2            24.0832294676       21.2944251950        6.5850500322  W2        6978            0.0000000000
     16760      5587  TIP3      H1             23.9997094676       22.1827351950        6.9316900322  W2        6978            0.0000000000
     16761      5587  TIP3      H2             24.9732594676       21.0290951950        6.8167300322  W2        6978            0.0000000000
     16762      5588  TIP3      OH2            32.8841794676       25.7935851950       13.0750500322  W2        6980            0.0000000000
     16763      5588  TIP3      H1             32.0866194676       25.3786051950       12.7465500322  W2        6980            0.0000000000
     16764      5588  TIP3      H2             33.3292894676       25.1029551950       13.5661000322  W2        6980            0.0000000000
     16765      5589  TIP3      OH2            22.3417594676       31.7216451950        5.6455000322  W2        6981            0.0000000000
     16766      5589  TIP3      H1             22.9339094676       32.4211251950        5.9217400322  W2        6981            0.0000000000
     16767      5589  TIP3      H2             22.8010594676       31.2885951950        4.9259600322  W2        6981            0.0000000000
     16768      5590  TIP3      OH2            20.6576794676       24.3859451950        4.7614400322  W2        6982            0.0000000000
     16769      5590  TIP3      H1             20.6129394676       25.3252551950        4.9401400322  W2        6982            0.0000000000
     16770      5590  TIP3      H2             19.7699994676       24.1504351950        4.4916500322  W2        6982            0.0000000000
     16771      5591  TIP3      OH2            33.9706394676       35.0498351950       14.6974000322  W2        6983            0.0000000000
     16772      5591  TIP3      H1             33.8150694676       35.7282751950       14.0403300322  W2        6983            0.0000000000
     16773      5591  TIP3      H2             34.9032794676       35.1217651950       14.9004600322  W2        6983            0.0000000000
     16774      5592  TIP3      OH2            21.4658794676       19.1676051950       13.4345400322  W2        6984            0.0000000000
     16775      5592  TIP3      H1             21.2368594676       19.2268551950       12.5070400322  W2        6984            0.0000000000
     16776      5592  TIP3      H2             21.0232194676       18.3761551950       13.7409500322  W2        6984            0.0000000000
     16777      5593  TIP3      OH2            20.3962094676       33.1083151950        9.5951200322  W2        6985            0.0000000000
     16778      5593  TIP3      H1             19.5640694676       33.5805851950        9.6222600322  W2        6985            0.0000000000
     16779      5593  TIP3      H2             20.9420394676       33.6180751950        8.9964300322  W2        6985            0.0000000000
     16780      5594  TIP3      OH2            28.3738794676       34.1481851950        3.9205200322  W2        6988            0.0000000000
     16781      5594  TIP3      H1             27.7299794676       33.5170451950        4.2418900322  W2        6988            0.0000000000
     16782      5594  TIP3      H2             29.1357094676       33.6169851950        3.6888700322  W2        6988            0.0000000000
     16783      5595  TIP3      OH2            32.9781694676       33.9651751950        4.1543200322  W2        6990            0.0000000000
     16784      5595  TIP3      H1             33.2612094676       33.1706951950        4.6070100322  W2        6990            0.0000000000
     16785      5595  TIP3      H2             33.7179594676       34.1982751950        3.5934300322  W2        6990            0.0000000000
     16786      5596  TIP3      OH2            23.9328994676       29.8746651950        4.0118100322  W2        6992            0.0000000000
     16787      5596  TIP3      H1             23.9973094676       29.0806251950        4.5424500322  W2        6992            0.0000000000
     16788      5596  TIP3      H2             24.5858194676       29.7559451950        3.3220100322  W2        6992            0.0000000000
     16789      5597  TIP3      OH2            29.2852394676       30.9218351950        3.7476100322  W2        6994            0.0000000000
     16790      5597  TIP3      H1             29.0166494676       31.1020451950        4.6485000322  W2        6994            0.0000000000
     16791      5597  TIP3      H2             29.0787994676       29.9964551950        3.6161900322  W2        6994            0.0000000000
     16792      5598  TIP3      OH2            25.0822794676       27.8472851950        6.3176100322  W2        6997            0.0000000000
     16793      5598  TIP3      H1             24.6224794676       27.3631151950        7.0034600322  W2        6997            0.0000000000
     16794      5598  TIP3      H2             25.3371494676       27.1788251950        5.6816600322  W2        6997            0.0000000000
     16795      5599  TIP3      OH2            26.1533194676       26.0904651950        4.5799300322  W2        6999            0.0000000000
     16796      5599  TIP3      H1             25.9728194676       25.9355851950        3.6527600322  W2        6999            0.0000000000
     16797      5599  TIP3      H2             27.1033694676       26.1983351950        4.6247200322  W2        6999            0.0000000000
     16798      5600  TIP3      OH2            35.5431494676       28.4448851950        4.0257400322  W2        7001            0.0000000000
     16799      5600  TIP3      H1             35.2696294676       28.0204351950        3.2125700322  W2        7001            0.0000000000
     16800      5600  TIP3      H2             35.5825594676       29.3763351950        3.8087800322  W2        7001            0.0000000000
     16801      5601  TIP3      OH2            26.0504894676       36.7808351950        5.5812900322  W2        7015            0.0000000000
     16802      5601  TIP3      H1             26.9835594676       36.9387051950        5.7251300322  W2        7015            0.0000000000
     16803      5601  TIP3      H2             25.7863694676       37.4561351950        4.9564400322  W2        7015            0.0000000000
     16804      5602  TIP3      OH2            19.6189794676       31.4172151950        5.0641000322  W2        7016            0.0000000000
     16805      5602  TIP3      H1             20.5328994676       31.4961051950        5.3374900322  W2        7016            0.0000000000
     16806      5602  TIP3      H2             19.6262894676       30.7301751950        4.3976600322  W2        7016            0.0000000000
     16807      5603  TIP3      OH2            18.2680394676       36.8100651950       10.1414900322  W2        7017            0.0000000000
     16808      5603  TIP3      H1             17.6207494676       36.3482351950        9.6086100322  W2        7017            0.0000000000
     16809      5603  TIP3      H2             18.6224994676       36.1383951950       10.7241100322  W2        7017            0.0000000000
     16810      5604  TIP3      OH2            19.1379594676       34.8907651950       11.9461100322  W2        7018            0.0000000000
     16811      5604  TIP3      H1             18.8036394676       34.0104951950       12.1181300322  W2        7018            0.0000000000
     16812      5604  TIP3      H2             19.3601994676       35.2362651950       12.8106700322  W2        7018            0.0000000000
     16813      5605  TIP3      OH2            36.0014294676       29.3136951950        8.0007800322  W2        7022            0.0000000000
     16814      5605  TIP3      H1             36.8515694676       29.7347851950        8.1279400322  W2        7022            0.0000000000
     16815      5605  TIP3      H2             36.0069394676       28.5737051950        8.6079200322  W2        7022            0.0000000000
     16816      5606  TIP3      OH2            36.3959894676       27.3674351950        9.8243500322  W2        7023            0.0000000000
     16817      5606  TIP3      H1             35.6694494676       26.8876951950       10.2221100322  W2        7023            0.0000000000
     16818      5606  TIP3      H2             36.9773194676       27.5729051950       10.5565100322  W2        7023            0.0000000000
     16819      5607  TIP3      OH2            36.1551094676       30.1521851950       14.7721100322  W2        7024            0.0000000000
     16820      5607  TIP3      H1             36.9885294676       29.7741851950       14.4914700322  W2        7024            0.0000000000
     16821      5607  TIP3      H2             36.2671394676       31.0953051950       14.6530200322  W2        7024            0.0000000000
     16822      5608  TIP3      OH2            36.6642994676       27.2682851950        6.2154800322  W2        7026            0.0000000000
     16823      5608  TIP3      H1             36.1424094676       27.6246951950        5.4965700322  W2        7026            0.0000000000
     16824      5608  TIP3      H2             36.6312194676       27.9430651950        6.8935700322  W2        7026            0.0000000000
     16825      5609  TIP3      OH2            35.0131994676       24.5078451950        4.7661900322  W2        7027            0.0000000000
     16826      5609  TIP3      H1             35.1096394676       25.1745451950        4.0861600322  W2        7027            0.0000000000
     16827      5609  TIP3      H2             34.8731594676       23.6924751950        4.2847400322  W2        7027            0.0000000000
     16828      5610  TIP3      OH2            34.1826694676       25.8880851950       10.3872200322  W2        7028            0.0000000000
     16829      5610  TIP3      H1             34.0325494676       24.9429451950       10.3670000322  W2        7028            0.0000000000
     16830      5610  TIP3      H2             33.8291194676       26.1692251950       11.2311300322  W2        7028            0.0000000000
     16831      5611  TIP3      OH2            19.2179094676       27.9663051950       14.3976000322  W2        7029            0.0000000000
     16832      5611  TIP3      H1             19.4021994676       27.8844751950       13.4618900322  W2        7029            0.0000000000
     16833      5611  TIP3      H2             20.0671994676       27.8420051950       14.8212400322  W2        7029            0.0000000000
     16834      5612  TIP3      OH2            34.2605794676       21.9158251950        3.8837400322  W2        7032            0.0000000000
     16835      5612  TIP3      H1             34.8711594676       21.5445051950        4.5205600322  W2        7032            0.0000000000
     16836      5612  TIP3      H2             33.4237294676       21.4945151950        4.0797400322  W2        7032            0.0000000000
     16837      5613  TIP3      OH2            33.8931494676       23.4706651950        8.8497300322  W2        7033            0.0000000000
     16838      5613  TIP3      H1             34.1728594676       22.5637051950        8.9739000322  W2        7033            0.0000000000
     16839      5613  TIP3      H2             34.6523194676       23.9048151950        8.4606500322  W2        7033            0.0000000000
     16840      5614  TIP3      OH2            34.5049794676       24.0524051950       14.2856200322  W2        7034            0.0000000000
     16841      5614  TIP3      H1             35.4377794676       24.2643951950       14.2512200322  W2        7034            0.0000000000
     16842      5614  TIP3      H2             34.2697294676       24.1536151950       15.2079200322  W2        7034            0.0000000000
     16843      5615  TIP3      OH2            34.5066294676       20.7335951950        8.8979300322  W2        7038            0.0000000000
     16844      5615  TIP3      H1             34.6891294676       20.2847451950        9.7234300322  W2        7038            0.0000000000
     16845      5615  TIP3      H2             33.9069194676       20.1490351950        8.4343900322  W2        7038            0.0000000000
     16846      5616  TIP3      OH2            20.0366394676       21.5489651950       13.4297700322  W2        7039            0.0000000000
     16847      5616  TIP3      H1             20.4817994676       20.7572151950       13.7317400322  W2        7039            0.0000000000
     16848      5616  TIP3      H2             20.5029394676       22.2654851950       13.8603300322  W2        7039            0.0000000000
     16849      5617  TIP3      OH2            18.3406694676       24.5482651950       14.4987900322  W2        7040            0.0000000000
     16850      5617  TIP3      H1             18.8326494676       24.3273151950       13.7079900322  W2        7040            0.0000000000
     16851      5617  TIP3      H2             18.7027594676       25.3886051950       14.7797400322  W2        7040            0.0000000000
     16852      5618  TIP3      OH2            36.3732494676       20.8014051950        5.4259600322  W2        7042            0.0000000000
     16853      5618  TIP3      H1             36.7855094676       20.0799751950        4.9507600322  W2        7042            0.0000000000
     16854      5618  TIP3      H2             37.0548994676       21.4708651950        5.4843900322  W2        7042            0.0000000000
     16855      5619  TIP3      OH2            18.6543194676       20.8061751950        8.5530300322  W2        7043            0.0000000000
     16856      5619  TIP3      H1             17.7291594676       21.0148351950        8.4235800322  W2        7043            0.0000000000
     16857      5619  TIP3      H2             19.1083094676       21.2902551950        7.8632600322  W2        7043            0.0000000000
     16858      5620  TIP3      OH2            33.4250394676       35.7903451950       10.4987700322  W2        7044            0.0000000000
     16859      5620  TIP3      H1             34.0773294676       35.4425551950        9.8906800322  W2        7044            0.0000000000
     16860      5620  TIP3      H2             33.9354194676       36.2786651950       11.1447400322  W2        7044            0.0000000000
     16861      5621  TIP3      OH2            20.5805594676       35.5732451950       14.2579700322  W2        7056            0.0000000000
     16862      5621  TIP3      H1             20.5621594676       35.1477551950       15.1152000322  W2        7056            0.0000000000
     16863      5621  TIP3      H2             21.3853494676       35.2547451950       13.8491900322  W2        7056            0.0000000000
     16864      5622  TIP3      OH2            22.7218694676       34.2831151950       12.9129600322  W2        7057            0.0000000000
     16865      5622  TIP3      H1             22.5029394676       33.3668551950       13.0825600322  W2        7057            0.0000000000
     16866      5622  TIP3      H2             23.5460894676       34.4231551950       13.3791000322  W2        7057            0.0000000000
     16867      5623  TIP3      OH2            25.2591194676       34.7530451950       13.7617600322  W2        7058            0.0000000000
     16868      5623  TIP3      H1             25.4716894676       33.8649451950       13.4748500322  W2        7058            0.0000000000
     16869      5623  TIP3      H2             25.3236294676       34.7188151950       14.7161600322  W2        7058            0.0000000000
     16870      5624  TIP3      OH2            28.7674894676       20.4171051950       12.9060900322  W2        7059            0.0000000000
     16871      5624  TIP3      H1             28.0931694676       19.7876651950       13.1616700322  W2        7059            0.0000000000
     16872      5624  TIP3      H2             29.3314094676       19.9329951950       12.3028800322  W2        7059            0.0000000000
     16873      5625  TIP3      OH2            33.9102094676       18.5245051950       13.0188000322  W2        7060            0.0000000000
     16874      5625  TIP3      H1             34.5139694676       19.0720451950       12.5169000322  W2        7060            0.0000000000
     16875      5625  TIP3      H2             33.0404094676       18.8435451950       12.7782100322  W2        7060            0.0000000000
     16876      5626  TIP3      OH2            35.6372494676       19.6633751950       11.3518900322  W2        7061            0.0000000000
     16877      5626  TIP3      H1             36.2489994676       19.1489451950       10.8252500322  W2        7061            0.0000000000
     16878      5626  TIP3      H2             36.0195894676       20.5405851950       11.3753300322  W2        7061            0.0000000000
     16879      5627  TIP3      OH2            21.0942394676       19.0511351950       10.7280800322  W2        7062            0.0000000000
     16880      5627  TIP3      H1             20.3172194676       18.8166251950       10.2206700322  W2        7062            0.0000000000
     16881      5627  TIP3      H2             21.6245994676       18.2543451950       10.7368800322  W2        7062            0.0000000000
     16882      5628  TIP3      OH2            19.9305794676       18.8489451950        6.5316900322  W2        7063            0.0000000000
     16883      5628  TIP3      H1             20.3696494676       19.4599951950        5.9400400322  W2        7063            0.0000000000
     16884      5628  TIP3      H2             19.2968194676       19.3873551950        7.0056900322  W2        7063            0.0000000000
     16885      5629  TIP3      OH2            25.6734994676       18.9778451950       10.5413900322  W2        7064            0.0000000000
     16886      5629  TIP3      H1             26.5478394676       19.3662751950       10.5118200322  W2        7064            0.0000000000
     16887      5629  TIP3      H2             25.5375794676       18.7626251950       11.4641100322  W2        7064            0.0000000000
     16888      5630  TIP3      OH2            31.2303394676       19.0078251950       12.1905600322  W2        7065            0.0000000000
     16889      5630  TIP3      H1             31.3064994676       19.1029851950       11.2411600322  W2        7065            0.0000000000
     16890      5630  TIP3      H2             30.9552594676       18.1001151950       12.3194700322  W2        7065            0.0000000000
     16891      5631  TIP3      OH2            32.5835994676       19.0336051950        7.8830600322  W2        7066            0.0000000000
     16892      5631  TIP3      H1             31.8807094676       19.6485251950        7.6732000322  W2        7066            0.0000000000
     16893      5631  TIP3      H2             32.1387394676       18.1962751950        8.0141500322  W2        7066            0.0000000000
     16894      5632  TIP3      OH2            19.8315294676       34.7971651950        7.4292000322  W2        7067            0.0000000000
     16895      5632  TIP3      H1             19.1465194676       34.7590551950        6.7617100322  W2        7067            0.0000000000
     16896      5632  TIP3      H2             19.8352494676       35.7099251950        7.7174100322  W2        7067            0.0000000000
     16897      5633  TIP3      OH2            21.7914894676       20.7650951950        4.9741000322  W2        7068            0.0000000000
     16898      5633  TIP3      H1             22.2828294676       20.1353351950        4.4466500322  W2        7068            0.0000000000
     16899      5633  TIP3      H2             22.4151194676       21.0610351950        5.6372200322  W2        7068            0.0000000000
     16900      5634  TIP3      OH2            26.8174994676       21.0582451950        7.4311500322  W2        7069            0.0000000000
     16901      5634  TIP3      H1             26.9956294676       20.4115651950        8.1140100322  W2        7069            0.0000000000
     16902      5634  TIP3      H2             26.7641194676       21.8920151950        7.8982600322  W2        7069            0.0000000000
     16903      5635  TIP3      OH2            28.6958794676       36.0066551950        5.8268200322  W2        7070            0.0000000000
     16904      5635  TIP3      H1             29.5618994676       36.3733951950        5.6486400322  W2        7070            0.0000000000
     16905      5635  TIP3      H2             28.4491594676       35.5674551950        5.0129000322  W2        7070            0.0000000000
     16906      5636  TIP3      OH2            35.4048394676       35.5696851950        8.5059300322  W2        7071            0.0000000000
     16907      5636  TIP3      H1             35.2105494676       34.8218951950        7.9408900322  W2        7071            0.0000000000
     16908      5636  TIP3      H2             35.3658494676       36.3276951950        7.9227200322  W2        7071            0.0000000000
     16909      5637  TIP3      OH2            21.6496494676       35.7172451950        4.4544100322  W2        7074            0.0000000000
     16910      5637  TIP3      H1             21.3821094676       36.0035351950        5.3277200322  W2        7074            0.0000000000
     16911      5637  TIP3      H2             22.4209094676       35.1711651950        4.6066600322  W2        7074            0.0000000000
     16912      5638  TIP3      OH2            37.8634894676       25.1867951950        9.6264300322  W2        7077            0.0000000000
     16913      5638  TIP3      H1             37.4158294676       26.0326651950        9.6080800322  W2        7077            0.0000000000
     16914      5638  TIP3      H2             37.3026094676       24.6072151950        9.1109400322  W2        7077            0.0000000000
     16915      5639  TIP3      OH2            37.6344394676       32.5040451950       14.2612300322  W2        7079            0.0000000000
     16916      5639  TIP3      H1             38.5804994676       32.3597451950       14.2421800322  W2        7079            0.0000000000
     16917      5639  TIP3      H2             37.5220694676       33.2883251950       14.7983500322  W2        7079            0.0000000000
     16918      5640  TIP3      OH2            37.2011594676       21.9192351950       11.2286000322  W2        7080            0.0000000000
     16919      5640  TIP3      H1             37.8319294676       21.8904451950       11.9479900322  W2        7080            0.0000000000
     16920      5640  TIP3      H2             37.6505894676       21.4941051950       10.4981900322  W2        7080            0.0000000000
     16921      5641  TIP3      OH2            37.1240394676       36.8100651950       10.1414900322  W2        7083            0.0000000000
     16922      5641  TIP3      H1             36.4767494676       36.3482351950        9.6086100322  W2        7083            0.0000000000
     16923      5641  TIP3      H2             37.4784994676       36.1383951950       10.7241100322  W2        7083            0.0000000000
     16924      5642  TIP3      OH2            37.9939594676       34.8907651950       11.9461100322  W2        7084            0.0000000000
     16925      5642  TIP3      H1             37.6596394676       34.0104951950       12.1181300322  W2        7084            0.0000000000
     16926      5642  TIP3      H2             38.2161994676       35.2362651950       12.8106700322  W2        7084            0.0000000000
     16927      5643  TIP3      OH2            38.0739094676       27.9663051950       14.3976000322  W2        7085            0.0000000000
     16928      5643  TIP3      H1             38.2581994676       27.8844751950       13.4618900322  W2        7085            0.0000000000
     16929      5643  TIP3      H2             38.9231994676       27.8420051950       14.8212400322  W2        7085            0.0000000000
     16930      5644  TIP3      OH2            37.1966694676       24.5482651950       14.4987900322  W2        7087            0.0000000000
     16931      5644  TIP3      H1             37.6886494676       24.3273151950       13.7079900322  W2        7087            0.0000000000
     16932      5644  TIP3      H2             37.5587594676       25.3886051950       14.7797400322  W2        7087            0.0000000000
     16933      5645  TIP3      OH2            37.5103194676       20.8061751950        8.5530300322  W2        7088            0.0000000000
     16934      5645  TIP3      H1             36.5851594676       21.0148351950        8.4235800322  W2        7088            0.0000000000
     16935      5645  TIP3      H2             37.9643094676       21.2902551950        7.8632600322  W2        7088            0.0000000000
     16936      5646  TIP3      OH2           -29.9407405324       37.4698051950       13.6382800322  W2        7090            0.0000000000
     16937      5646  TIP3      H1            -30.0583205324       36.5214051950       13.5841100322  W2        7090            0.0000000000
     16938      5646  TIP3      H2            -30.7957305324       37.8024151950       13.9113900322  W2        7090            0.0000000000
     16939      5647  TIP3      OH2           -21.6986905324       37.4290251950        6.5885400322  W2        7091            0.0000000000
     16940      5647  TIP3      H1            -22.5986205324       37.5679251950        6.8836000322  W2        7091            0.0000000000
     16941      5647  TIP3      H2            -21.4468505324       38.2604851950        6.1867100322  W2        7091            0.0000000000
     16942      5648  TIP3      OH2           -32.6719805324       38.3732551950       14.4159100322  W2        7092            0.0000000000
     16943      5648  TIP3      H1            -33.5336105324       38.2860751950       14.0082000322  W2        7092            0.0000000000
     16944      5648  TIP3      H2            -32.6944105324       39.2292651950       14.8436700322  W2        7092            0.0000000000
     16945      5649  TIP3      OH2           -35.1021205324       38.0236051950       13.4345400322  W2        7094            0.0000000000
     16946      5649  TIP3      H1            -35.3311405324       38.0828551950       12.5070400322  W2        7094            0.0000000000
     16947      5649  TIP3      H2            -35.5447805324       37.2321551950       13.7409500322  W2        7094            0.0000000000
     16948      5650  TIP3      OH2           -22.6577905324       37.3805051950       13.0188000322  W2        7100            0.0000000000
     16949      5650  TIP3      H1            -22.0540305324       37.9280451950       12.5169000322  W2        7100            0.0000000000
     16950      5650  TIP3      H2            -23.5275905324       37.6995451950       12.7782100322  W2        7100            0.0000000000
     16951      5651  TIP3      OH2           -35.4737605324       37.9071351950       10.7280800322  W2        7101            0.0000000000
     16952      5651  TIP3      H1            -36.2507805324       37.6726251950       10.2206700322  W2        7101            0.0000000000
     16953      5651  TIP3      H2            -34.9434005324       37.1103451950       10.7368800322  W2        7101            0.0000000000
     16954      5652  TIP3      OH2           -36.6374205324       37.7049451950        6.5316900322  W2        7102            0.0000000000
     16955      5652  TIP3      H1            -36.1983505324       38.3159951950        5.9400400322  W2        7102            0.0000000000
     16956      5652  TIP3      H2            -37.2711805324       38.2433551950        7.0056900322  W2        7102            0.0000000000
     16957      5653  TIP3      OH2           -30.8945005324       37.8338451950       10.5413900322  W2        7103            0.0000000000
     16958      5653  TIP3      H1            -30.0201605324       38.2222751950       10.5118200322  W2        7103            0.0000000000
     16959      5653  TIP3      H2            -31.0304205324       37.6186251950       11.4641100322  W2        7103            0.0000000000
     16960      5654  TIP3      OH2           -25.3376605324       37.8638251950       12.1905600322  W2        7104            0.0000000000
     16961      5654  TIP3      H1            -25.2615005324       37.9589851950       11.2411600322  W2        7104            0.0000000000
     16962      5654  TIP3      H2            -25.6127405324       36.9561151950       12.3194700322  W2        7104            0.0000000000
     16963      5655  TIP3      OH2           -23.9844005324       37.8896051950        7.8830600322  W2        7105            0.0000000000
     16964      5655  TIP3      H1            -24.6872905324       38.5045251950        7.6732000322  W2        7105            0.0000000000
     16965      5655  TIP3      H2            -24.4292605324       37.0522751950        8.0141500322  W2        7105            0.0000000000
     16966      5656  TIP3      OH2           -11.0847405324       37.4698051950       13.6382800322  W2        7108            0.0000000000
     16967      5656  TIP3      H1            -11.2023205324       36.5214051950       13.5841100322  W2        7108            0.0000000000
     16968      5656  TIP3      H2            -11.9397305324       37.8024151950       13.9113900322  W2        7108            0.0000000000
     16969      5657  TIP3      OH2            -2.8426905324       37.4290251950        6.5885400322  W2        7109            0.0000000000
     16970      5657  TIP3      H1             -3.7426205324       37.5679251950        6.8836000322  W2        7109            0.0000000000
     16971      5657  TIP3      H2             -2.5908505324       38.2604851950        6.1867100322  W2        7109            0.0000000000
     16972      5658  TIP3      OH2           -13.8159805324       38.3732551950       14.4159100322  W2        7110            0.0000000000
     16973      5658  TIP3      H1            -14.6776105324       38.2860751950       14.0082000322  W2        7110            0.0000000000
     16974      5658  TIP3      H2            -13.8384105324       39.2292651950       14.8436700322  W2        7110            0.0000000000
     16975      5659  TIP3      OH2           -16.2461205324       38.0236051950       13.4345400322  W2        7112            0.0000000000
     16976      5659  TIP3      H1            -16.4751405324       38.0828551950       12.5070400322  W2        7112            0.0000000000
     16977      5659  TIP3      H2            -16.6887805324       37.2321551950       13.7409500322  W2        7112            0.0000000000
     16978      5660  TIP3      OH2            -3.8017905324       37.3805051950       13.0188000322  W2        7118            0.0000000000
     16979      5660  TIP3      H1             -3.1980305324       37.9280451950       12.5169000322  W2        7118            0.0000000000
     16980      5660  TIP3      H2             -4.6715905324       37.6995451950       12.7782100322  W2        7118            0.0000000000
     16981      5661  TIP3      OH2           -16.6177605324       37.9071351950       10.7280800322  W2        7119            0.0000000000
     16982      5661  TIP3      H1            -17.3947805324       37.6726251950       10.2206700322  W2        7119            0.0000000000
     16983      5661  TIP3      H2            -16.0874005324       37.1103451950       10.7368800322  W2        7119            0.0000000000
     16984      5662  TIP3      OH2           -17.7814205324       37.7049451950        6.5316900322  W2        7120            0.0000000000
     16985      5662  TIP3      H1            -17.3423505324       38.3159951950        5.9400400322  W2        7120            0.0000000000
     16986      5662  TIP3      H2            -18.4151805324       38.2433551950        7.0056900322  W2        7120            0.0000000000
     16987      5663  TIP3      OH2           -12.0385005324       37.8338451950       10.5413900322  W2        7121            0.0000000000
     16988      5663  TIP3      H1            -11.1641605324       38.2222751950       10.5118200322  W2        7121            0.0000000000
     16989      5663  TIP3      H2            -12.1744205324       37.6186251950       11.4641100322  W2        7121            0.0000000000
     16990      5664  TIP3      OH2            -6.4816605324       37.8638251950       12.1905600322  W2        7122            0.0000000000
     16991      5664  TIP3      H1             -6.4055005324       37.9589851950       11.2411600322  W2        7122            0.0000000000
     16992      5664  TIP3      H2             -6.7567405324       36.9561151950       12.3194700322  W2        7122            0.0000000000
     16993      5665  TIP3      OH2            -5.1284005324       37.8896051950        7.8830600322  W2        7123            0.0000000000
     16994      5665  TIP3      H1             -5.8312905324       38.5045251950        7.6732000322  W2        7123            0.0000000000
     16995      5665  TIP3      H2             -5.5732605324       37.0522751950        8.0141500322  W2        7123            0.0000000000
     16996      5666  TIP3      OH2             7.7712594676       37.4698051950       13.6382800322  W2        7126            0.0000000000
     16997      5666  TIP3      H1              7.6536794676       36.5214051950       13.5841100322  W2        7126            0.0000000000
     16998      5666  TIP3      H2              6.9162694676       37.8024151950       13.9113900322  W2        7126            0.0000000000
     16999      5667  TIP3      OH2            16.0133094676       37.4290251950        6.5885400322  W2        7127            0.0000000000
     17000      5667  TIP3      H1             15.1133794676       37.5679251950        6.8836000322  W2        7127            0.0000000000
     17001      5667  TIP3      H2             16.2651494676       38.2604851950        6.1867100322  W2        7127            0.0000000000
     17002      5668  TIP3      OH2             5.0400194676       38.3732551950       14.4159100322  W2        7128            0.0000000000
     17003      5668  TIP3      H1              4.1783894676       38.2860751950       14.0082000322  W2        7128            0.0000000000
     17004      5668  TIP3      H2              5.0175894676       39.2292651950       14.8436700322  W2        7128            0.0000000000
     17005      5669  TIP3      OH2             2.6098794676       38.0236051950       13.4345400322  W2        7130            0.0000000000
     17006      5669  TIP3      H1              2.3808594676       38.0828551950       12.5070400322  W2        7130            0.0000000000
     17007      5669  TIP3      H2              2.1672194676       37.2321551950       13.7409500322  W2        7130            0.0000000000
     17008      5670  TIP3      OH2            15.0542094676       37.3805051950       13.0188000322  W2        7136            0.0000000000
     17009      5670  TIP3      H1             15.6579694676       37.9280451950       12.5169000322  W2        7136            0.0000000000
     17010      5670  TIP3      H2             14.1844094676       37.6995451950       12.7782100322  W2        7136            0.0000000000
     17011      5671  TIP3      OH2             2.2382394676       37.9071351950       10.7280800322  W2        7137            0.0000000000
     17012      5671  TIP3      H1              1.4612194676       37.6726251950       10.2206700322  W2        7137            0.0000000000
     17013      5671  TIP3      H2              2.7685994676       37.1103451950       10.7368800322  W2        7137            0.0000000000
     17014      5672  TIP3      OH2             1.0745794676       37.7049451950        6.5316900322  W2        7138            0.0000000000
     17015      5672  TIP3      H1              1.5136494676       38.3159951950        5.9400400322  W2        7138            0.0000000000
     17016      5672  TIP3      H2              0.4408194676       38.2433551950        7.0056900322  W2        7138            0.0000000000
     17017      5673  TIP3      OH2             6.8174994676       37.8338451950       10.5413900322  W2        7139            0.0000000000
     17018      5673  TIP3      H1              7.6918394676       38.2222751950       10.5118200322  W2        7139            0.0000000000
     17019      5673  TIP3      H2              6.6815794676       37.6186251950       11.4641100322  W2        7139            0.0000000000
     17020      5674  TIP3      OH2            12.3743394676       37.8638251950       12.1905600322  W2        7140            0.0000000000
     17021      5674  TIP3      H1             12.4504994676       37.9589851950       11.2411600322  W2        7140            0.0000000000
     17022      5674  TIP3      H2             12.0992594676       36.9561151950       12.3194700322  W2        7140            0.0000000000
     17023      5675  TIP3      OH2            13.7275994676       37.8896051950        7.8830600322  W2        7141            0.0000000000
     17024      5675  TIP3      H1             13.0247094676       38.5045251950        7.6732000322  W2        7141            0.0000000000
     17025      5675  TIP3      H2             13.2827394676       37.0522751950        8.0141500322  W2        7141            0.0000000000
     17026      5676  TIP3      OH2            26.6272594676       37.4698051950       13.6382800322  W2        7144            0.0000000000
     17027      5676  TIP3      H1             26.5096794676       36.5214051950       13.5841100322  W2        7144            0.0000000000
     17028      5676  TIP3      H2             25.7722694676       37.8024151950       13.9113900322  W2        7144            0.0000000000
     17029      5677  TIP3      OH2            34.8693094676       37.4290251950        6.5885400322  W2        7145            0.0000000000
     17030      5677  TIP3      H1             33.9693794676       37.5679251950        6.8836000322  W2        7145            0.0000000000
     17031      5677  TIP3      H2             35.1211494676       38.2604851950        6.1867100322  W2        7145            0.0000000000
     17032      5678  TIP3      OH2            23.8960194676       38.3732551950       14.4159100322  W2        7146            0.0000000000
     17033      5678  TIP3      H1             23.0343894676       38.2860751950       14.0082000322  W2        7146            0.0000000000
     17034      5678  TIP3      H2             23.8735894676       39.2292651950       14.8436700322  W2        7146            0.0000000000
     17035      5679  TIP3      OH2            21.4658794676       38.0236051950       13.4345400322  W2        7148            0.0000000000
     17036      5679  TIP3      H1             21.2368594676       38.0828551950       12.5070400322  W2        7148            0.0000000000
     17037      5679  TIP3      H2             21.0232194676       37.2321551950       13.7409500322  W2        7148            0.0000000000
     17038      5680  TIP3      OH2            33.9102094676       37.3805051950       13.0188000322  W2        7154            0.0000000000
     17039      5680  TIP3      H1             34.5139694676       37.9280451950       12.5169000322  W2        7154            0.0000000000
     17040      5680  TIP3      H2             33.0404094676       37.6995451950       12.7782100322  W2        7154            0.0000000000
     17041      5681  TIP3      OH2            21.0942394676       37.9071351950       10.7280800322  W2        7155            0.0000000000
     17042      5681  TIP3      H1             20.3172194676       37.6726251950       10.2206700322  W2        7155            0.0000000000
     17043      5681  TIP3      H2             21.6245994676       37.1103451950       10.7368800322  W2        7155            0.0000000000
     17044      5682  TIP3      OH2            19.9305794676       37.7049451950        6.5316900322  W2        7156            0.0000000000
     17045      5682  TIP3      H1             20.3696494676       38.3159951950        5.9400400322  W2        7156            0.0000000000
     17046      5682  TIP3      H2             19.2968194676       38.2433551950        7.0056900322  W2        7156            0.0000000000
     17047      5683  TIP3      OH2            25.6734994676       37.8338451950       10.5413900322  W2        7157            0.0000000000
     17048      5683  TIP3      H1             26.5478394676       38.2222751950       10.5118200322  W2        7157            0.0000000000
     17049      5683  TIP3      H2             25.5375794676       37.6186251950       11.4641100322  W2        7157            0.0000000000
     17050      5684  TIP3      OH2            31.2303394676       37.8638251950       12.1905600322  W2        7158            0.0000000000
     17051      5684  TIP3      H1             31.3064994676       37.9589851950       11.2411600322  W2        7158            0.0000000000
     17052      5684  TIP3      H2             30.9552594676       36.9561151950       12.3194700322  W2        7158            0.0000000000
     17053      5685  TIP3      OH2            32.5835994676       37.8896051950        7.8830600322  W2        7159            0.0000000000
     17054      5685  TIP3      H1             31.8807094676       38.5045251950        7.6732000322  W2        7159            0.0000000000
     17055      5685  TIP3      H2             32.1387394676       37.0522751950        8.0141500322  W2        7159            0.0000000000
